/*--------------------------------*- C++ -*----------------------------------*\
| =========                 |                                                 |
| \\      /  F ield         | OpenFOAM: The Open Source CFD Toolbox           |
|  \\    /   O peration     | Version:  2412                                  |
|   \\  /    A nd           | Website:  www.openfoam.com                      |
|    \\/     M anipulation  |                                                 |
\*---------------------------------------------------------------------------*/
FoamFile
{
    version     2.0;
    format      ascii;
    arch        "LSB;label=32;scalar=64";
    class       volScalarField;
    location    "1.99";
    object      p;
}
// * * * * * * * * * * * * * * * * * * * * * * * * * * * * * * * * * * * * * //

dimensions      [0 2 -2 0 0 0 0];

internalField   nonuniform List<scalar> 
257400
(
0.51605
0.466352
0.380586
0.287231
0.205793
0.13555
0.0760933
0.0278957
-0.010522
-0.0404868
-0.0639325
-0.083277
-0.0992842
-0.112418
-0.123996
-0.133715
-0.142068
-0.149226
-0.155431
-0.160987
-0.165838
-0.169956
-0.173792
-0.176941
-0.179889
-0.182396
-0.184637
-0.186538
-0.188228
-0.189877
-0.191056
-0.192277
-0.193313
-0.194086
-0.19475
-0.195299
-0.195727
-0.196132
-0.196303
-0.196553
-0.196702
-0.19666
-0.196693
-0.196578
-0.196357
-0.196134
-0.195885
-0.195535
-0.195187
-0.194807
-0.194337
-0.193874
-0.193377
-0.192861
-0.192272
-0.191649
-0.191029
-0.190444
-0.189844
-0.189112
-0.188424
-0.187771
-0.187009
-0.186245
-0.18554
-0.184804
-0.183992
-0.183157
-0.182319
-0.181518
-0.180689
-0.179827
-0.178968
-0.178128
-0.177244
-0.176344
-0.175442
-0.174556
-0.173675
-0.172752
0.499519
0.469466
0.418507
0.351282
0.271587
0.200375
0.136268
0.0802536
0.033115
-0.00523492
-0.0356498
-0.0601428
-0.0801013
-0.0961744
-0.109988
-0.121539
-0.131458
-0.139989
-0.147303
-0.153714
-0.159381
-0.164198
-0.16863
-0.172393
-0.175777
-0.17876
-0.18139
-0.18369
-0.185639
-0.187503
-0.189003
-0.190354
-0.191566
-0.192554
-0.193369
-0.194056
-0.194585
-0.195077
-0.195372
-0.195643
-0.195854
-0.195902
-0.195963
-0.195926
-0.195785
-0.1956
-0.195391
-0.195096
-0.19477
-0.194423
-0.193994
-0.193553
-0.193072
-0.192572
-0.192016
-0.19142
-0.190813
-0.190212
-0.18963
-0.188931
-0.188251
-0.187589
-0.186866
-0.1861
-0.185354
-0.184611
-0.183816
-0.182993
-0.182151
-0.181329
-0.180495
-0.179636
-0.178765
-0.177908
-0.177024
-0.176122
-0.175217
-0.174318
-0.173435
-0.172511
0.476319
0.456167
0.418539
0.366726
0.307456
0.23893
0.177835
0.122582
0.0728426
0.0294858
-0.00679719
-0.0363973
-0.0606582
-0.0802981
-0.0965435
-0.110105
-0.121594
-0.131385
-0.139782
-0.147059
-0.153498
-0.158891
-0.163767
-0.167943
-0.171674
-0.174951
-0.177838
-0.180394
-0.182584
-0.184625
-0.186334
-0.187873
-0.189238
-0.190385
-0.19135
-0.19218
-0.192835
-0.193428
-0.193846
-0.194202
-0.1945
-0.194642
-0.194764
-0.194793
-0.194726
-0.194601
-0.194439
-0.194198
-0.193915
-0.193605
-0.19322
-0.192816
-0.19237
-0.191897
-0.19137
-0.190803
-0.190224
-0.189627
-0.189037
-0.18838
-0.187711
-0.187048
-0.186347
-0.185609
-0.184873
-0.184138
-0.183363
-0.182561
-0.181733
-0.180915
-0.180088
-0.179241
-0.178377
-0.177521
-0.176647
-0.175754
-0.174855
-0.173952
-0.17307
-0.172156
0.45033
0.436726
0.411613
0.375595
0.331579
0.282212
0.22329
0.16712
0.118491
0.074057
0.0342369
-0.000159518
-0.0293785
-0.0536745
-0.0738095
-0.0905433
-0.104588
-0.116402
-0.126487
-0.135122
-0.142685
-0.14939
-0.155174
-0.16018
-0.164573
-0.168444
-0.171844
-0.174868
-0.177469
-0.179806
-0.181823
-0.183629
-0.18522
-0.186604
-0.187792
-0.188824
-0.189671
-0.190417
-0.191009
-0.191495
-0.191901
-0.192173
-0.192392
-0.192521
-0.192565
-0.192539
-0.192458
-0.192306
-0.192099
-0.191856
-0.191546
-0.191207
-0.190822
-0.190401
-0.189934
-0.189428
-0.188903
-0.188342
-0.187756
-0.18715
-0.186514
-0.185885
-0.185233
-0.184549
-0.183845
-0.183132
-0.182388
-0.181624
-0.180834
-0.180041
-0.179237
-0.178417
-0.17758
-0.176743
-0.175894
-0.175026
-0.174155
-0.173272
-0.17241
-0.171524
0.424933
0.415608
0.398169
0.372132
0.338101
0.297782
0.25431
0.205458
0.153978
0.109664
0.0701133
0.034703
0.00332702
-0.0239744
-0.0472894
-0.0671111
-0.0840203
-0.0983847
-0.110296
-0.12076
-0.129904
-0.137625
-0.144314
-0.150178
-0.155322
-0.159849
-0.16383
-0.167372
-0.170471
-0.17323
-0.175651
-0.177803
-0.179697
-0.181366
-0.182818
-0.184087
-0.185164
-0.186109
-0.186903
-0.187565
-0.188123
-0.188558
-0.188915
-0.189176
-0.189352
-0.18945
-0.18948
-0.189438
-0.189335
-0.189184
-0.188971
-0.188719
-0.188417
-0.188073
-0.187686
-0.187258
-0.186799
-0.186295
-0.185753
-0.185211
-0.184605
-0.184026
-0.183441
-0.182828
-0.182183
-0.181517
-0.180823
-0.180112
-0.179376
-0.178629
-0.177867
-0.177089
-0.176297
-0.175498
-0.174689
-0.173865
-0.173037
-0.172195
-0.171369
-0.170525
0.401188
0.39473
0.382582
0.364017
0.338718
0.307426
0.271431
0.232668
0.19123
0.146058
0.10346
0.0662034
0.0335604
0.00460131
-0.0206822
-0.0423985
-0.0609336
-0.0772759
-0.0918858
-0.104107
-0.114519
-0.123563
-0.13144
-0.138312
-0.144318
-0.149603
-0.154259
-0.158407
-0.162077
-0.165332
-0.168209
-0.17076
-0.17301
-0.175004
-0.176754
-0.178291
-0.179625
-0.180798
-0.181814
-0.182678
-0.183416
-0.184032
-0.184549
-0.184962
-0.185286
-0.185524
-0.185681
-0.185766
-0.185782
-0.18574
-0.185637
-0.185485
-0.185279
-0.185027
-0.184731
-0.184397
-0.184028
-0.18362
-0.18317
-0.182652
-0.182109
-0.181566
-0.181042
-0.180507
-0.179939
-0.17934
-0.178714
-0.178069
-0.177399
-0.17671
-0.176002
-0.175279
-0.174542
-0.173795
-0.173039
-0.17227
-0.171497
-0.170711
-0.169932
-0.169141
0.379464
0.374942
0.366346
0.352937
0.334045
0.309579
0.280304
0.247495
0.212086
0.175014
0.137443
0.100282
0.065612
0.0348279
0.00738628
-0.0168871
-0.0384205
-0.0567761
-0.0724693
-0.0860751
-0.0980171
-0.108418
-0.117438
-0.12533
-0.132253
-0.138353
-0.143737
-0.148522
-0.152762
-0.156529
-0.159892
-0.162885
-0.165536
-0.167896
-0.169981
-0.171818
-0.173433
-0.174857
-0.176109
-0.177191
-0.178125
-0.178934
-0.179623
-0.1802
-0.180682
-0.181068
-0.181364
-0.181582
-0.181725
-0.181801
-0.181813
-0.18177
-0.181668
-0.181515
-0.181317
-0.181078
-0.180797
-0.180466
-0.180086
-0.179667
-0.179223
-0.178739
-0.17825
-0.177757
-0.177259
-0.176739
-0.176194
-0.175625
-0.175027
-0.174402
-0.173755
-0.173093
-0.172416
-0.171727
-0.17103
-0.17032
-0.169607
-0.168881
-0.168156
-0.16742
0.359728
0.356539
0.350417
0.34068
0.326571
0.307661
0.284138
0.256788
0.226997
0.194671
0.160277
0.125777
0.0924499
0.0611841
0.0328149
0.00735226
-0.0151327
-0.0348891
-0.0523106
-0.0675551
-0.0808839
-0.0925298
-0.102707
-0.11166
-0.119532
-0.126476
-0.132614
-0.138068
-0.142906
-0.147204
-0.151056
-0.154495
-0.157564
-0.160314
-0.162758
-0.164924
-0.166841
-0.16854
-0.170047
-0.171362
-0.17251
-0.173519
-0.174393
-0.175143
-0.175788
-0.176328
-0.176768
-0.177123
-0.177397
-0.177595
-0.177726
-0.177795
-0.177799
-0.177748
-0.177649
-0.177504
-0.177311
-0.177065
-0.176775
-0.176454
-0.176106
-0.175723
-0.175295
-0.174828
-0.174341
-0.173883
-0.173419
-0.17293
-0.172407
-0.17185
-0.171266
-0.170664
-0.170048
-0.169418
-0.168778
-0.168129
-0.167474
-0.166807
-0.166136
-0.165454
0.341837
0.33958
0.33519
0.328062
0.317465
0.302823
0.284034
0.261365
0.235675
0.208023
0.178621
0.147801
0.11648
0.0860683
0.0575914
0.0313572
0.00760389
-0.013587
-0.0323428
-0.0488538
-0.0634357
-0.0763002
-0.0876089
-0.0975935
-0.106401
-0.114195
-0.121102
-0.127247
-0.13271
-0.137569
-0.141928
-0.145824
-0.149309
-0.152443
-0.155248
-0.157752
-0.159987
-0.161979
-0.163757
-0.165322
-0.166699
-0.167924
-0.168994
-0.169927
-0.170743
-0.171442
-0.172032
-0.172529
-0.172937
-0.173261
-0.173513
-0.173695
-0.173809
-0.173862
-0.173861
-0.173812
-0.173711
-0.173555
-0.173352
-0.173117
-0.172848
-0.172534
-0.172176
-0.171787
-0.171367
-0.170937
-0.170526
-0.170108
-0.169658
-0.169169
-0.168649
-0.168107
-0.16755
-0.166976
-0.166392
-0.165799
-0.165199
-0.164588
-0.163968
-0.163336
0.325599
0.324005
0.320855
0.315613
0.307609
0.296243
0.281251
0.26263
0.240904
0.216787
0.191005
0.163732
0.1354
0.106906
0.079275
0.0531349
0.028986
0.00705277
-0.012692
-0.0303234
-0.0460412
-0.0600022
-0.0723511
-0.0833154
-0.093034
-0.101666
-0.109341
-0.116184
-0.122282
-0.127716
-0.132596
-0.136966
-0.140883
-0.144413
-0.14758
-0.150419
-0.152967
-0.155253
-0.157309
-0.159132
-0.160752
-0.162202
-0.163481
-0.164608
-0.165605
-0.166472
-0.167219
-0.167863
-0.168409
-0.168864
-0.16924
-0.169539
-0.169765
-0.169923
-0.170024
-0.170072
-0.170064
-0.169997
-0.16988
-0.169727
-0.169536
-0.169299
-0.169024
-0.16872
-0.168379
-0.167995
-0.167603
-0.167233
-0.16685
-0.16643
-0.165975
-0.165494
-0.164994
-0.164475
-0.163944
-0.163404
-0.162856
-0.162296
-0.161724
-0.161138
0.310826
0.30971
0.307457
0.303591
0.297512
0.288644
0.276658
0.261384
0.243068
0.222213
0.199476
0.175479
0.150217
0.124131
0.0980731
0.072734
0.0487329
0.026462
0.00607496
-0.0123666
-0.0289771
-0.0438686
-0.0571488
-0.0690158
-0.0795902
-0.0890235
-0.0974431
-0.104973
-0.111701
-0.117713
-0.123122
-0.127976
-0.132335
-0.136269
-0.139809
-0.142992
-0.145858
-0.148438
-0.150767
-0.152847
-0.15471
-0.15639
-0.157883
-0.159211
-0.160397
-0.161441
-0.162352
-0.16315
-0.163841
-0.164432
-0.164936
-0.165356
-0.165695
-0.165962
-0.166167
-0.166314
-0.1664
-0.166423
-0.166391
-0.166322
-0.166213
-0.166056
-0.165861
-0.165633
-0.165366
-0.165061
-0.164724
-0.164363
-0.164027
-0.163671
-0.163281
-0.162862
-0.162419
-0.161955
-0.161475
-0.160986
-0.160488
-0.159976
-0.159449
-0.158905
0.297344
0.296577
0.294983
0.292134
0.287495
0.280538
0.270917
0.258374
0.242995
0.225081
0.205093
0.183652
0.161135
0.137606
0.113547
0.0895509
0.0662676
0.0441987
0.0236231
0.00471714
-0.0125304
-0.0281577
-0.0422186
-0.0548741
-0.0662212
-0.0763973
-0.0855209
-0.0937092
-0.101052
-0.107633
-0.113567
-0.118903
-0.123706
-0.12805
-0.131968
-0.1355
-0.138689
-0.141568
-0.144175
-0.146515
-0.14862
-0.150527
-0.152232
-0.153763
-0.15514
-0.156363
-0.157444
-0.158402
-0.159243
-0.159974
-0.160611
-0.161156
-0.161613
-0.161992
-0.162303
-0.16255
-0.162732
-0.162847
-0.162903
-0.162919
-0.162892
-0.162815
-0.162696
-0.16254
-0.162345
-0.16211
-0.161844
-0.161553
-0.161232
-0.16092
-0.160589
-0.160232
-0.159847
-0.159436
-0.159008
-0.158568
-0.158117
-0.157651
-0.157167
-0.156664
0.285
0.284489
0.283385
0.281295
0.277743
0.272253
0.264489
0.254156
0.241234
0.225886
0.208411
0.189295
0.169057
0.147887
0.125948
0.103623
0.0814779
0.0600357
0.03966
0.020628
0.00302875
-0.0131027
-0.0277632
-0.041068
-0.053082
-0.063921
-0.0736887
-0.0824924
-0.0904173
-0.0975456
-0.103991
-0.109801
-0.115044
-0.119795
-0.12409
-0.127973
-0.131486
-0.134667
-0.137555
-0.140157
-0.142507
-0.144642
-0.146563
-0.148295
-0.149861
-0.151262
-0.152513
-0.153632
-0.154625
-0.1555
-0.156273
-0.156946
-0.157525
-0.158018
-0.158438
-0.158789
-0.159068
-0.159276
-0.159422
-0.159525
-0.15958
-0.159581
-0.159537
-0.159455
-0.15933
-0.159164
-0.158965
-0.158739
-0.158483
-0.158202
-0.157918
-0.157616
-0.157287
-0.156929
-0.156552
-0.15616
-0.155755
-0.155333
-0.154892
-0.154428
0.273658
0.273339
0.2726
0.271083
0.26836
0.264003
0.257701
0.249149
0.238267
0.225122
0.209894
0.192928
0.174671
0.155511
0.135584
0.115045
0.0942954
0.0738105
0.0539821
0.0351506
0.0174854
0.00108984
-0.0139735
-0.0277685
-0.0403232
-0.0517259
-0.062061
-0.0714213
-0.0798843
-0.0875268
-0.0944579
-0.100725
-0.106395
-0.111545
-0.116213
-0.120442
-0.124279
-0.127761
-0.13093
-0.133794
-0.13639
-0.138754
-0.140891
-0.142825
-0.144581
-0.146162
-0.147581
-0.14886
-0.150003
-0.151022
-0.151931
-0.152734
-0.153436
-0.154047
-0.154577
-0.155033
-0.155413
-0.155716
-0.155953
-0.156142
-0.15628
-0.15636
-0.156392
-0.156384
-0.156329
-0.156231
-0.156099
-0.155937
-0.155741
-0.15551
-0.155274
-0.155022
-0.154745
-0.15444
-0.154112
-0.153768
-0.153408
-0.153029
-0.152629
-0.152203
0.263204
0.263027
0.262564
0.261481
0.259395
0.255921
0.250774
0.243657
0.234456
0.22318
0.209916
0.194906
0.178505
0.161066
0.142911
0.1241
0.104853
0.0855355
0.0665152
0.0481554
0.0306824
0.0142553
-0.00100974
-0.0151257
-0.028082
-0.0399357
-0.0507479
-0.0605932
-0.0695378
-0.0776509
-0.0850343
-0.0917321
-0.0978099
-0.103344
-0.108373
-0.112942
-0.117096
-0.120875
-0.124322
-0.127447
-0.130286
-0.13288
-0.135231
-0.137367
-0.139314
-0.141074
-0.142662
-0.1441
-0.145395
-0.146557
-0.147602
-0.148533
-0.149358
-0.150085
-0.150727
-0.151289
-0.15177
-0.152169
-0.152498
-0.152775
-0.152996
-0.153156
-0.153265
-0.15333
-0.153345
-0.153315
-0.15325
-0.153153
-0.153022
-0.152856
-0.152658
-0.152451
-0.152224
-0.151969
-0.151691
-0.151394
-0.151078
-0.150742
-0.150382
-0.149995
0.253536
0.253466
0.253212
0.252462
0.250868
0.248085
0.243856
0.237897
0.230081
0.220378
0.208814
0.195546
0.180853
0.165017
0.148376
0.131128
0.113362
0.0953091
0.0772689
0.0595905
0.0425288
0.0262807
0.0110056
-0.00326292
-0.0164769
-0.0286609
-0.0398504
-0.0500991
-0.0594596
-0.0679903
-0.0757836
-0.0828787
-0.0893381
-0.095236
-0.10061
-0.105505
-0.109968
-0.114036
-0.117754
-0.121136
-0.124216
-0.127036
-0.1296
-0.131937
-0.134072
-0.136011
-0.137767
-0.139364
-0.14081
-0.142114
-0.143294
-0.144354
-0.1453
-0.146144
-0.146896
-0.147563
-0.148145
-0.148641
-0.149062
-0.149427
-0.149732
-0.149972
-0.150159
-0.150297
-0.150383
-0.150421
-0.150422
-0.150389
-0.150321
-0.150213
-0.150066
-0.149906
-0.149727
-0.149522
-0.149291
-0.149041
-0.148769
-0.148475
-0.148155
-0.147806
0.244569
0.244579
0.244483
0.24399
0.242779
0.240542
0.237045
0.232025
0.225349
0.216967
0.206861
0.195126
0.181978
0.167633
0.152381
0.13649
0.120095
0.103308
0.086336
0.0694807
0.0529988
0.037106
0.021992
0.00772913
-0.00560167
-0.0179936
-0.029456
-0.0400205
-0.0497239
-0.0586123
-0.0667664
-0.0742191
-0.0810279
-0.0872633
-0.0929618
-0.0981666
-0.102923
-0.10727
-0.111252
-0.114882
-0.118198
-0.121239
-0.124013
-0.126547
-0.128869
-0.130984
-0.132907
-0.134662
-0.136257
-0.137703
-0.139017
-0.140204
-0.141272
-0.142231
-0.143093
-0.143865
-0.144546
-0.145137
-0.14565
-0.146103
-0.146492
-0.146812
-0.147076
-0.147288
-0.147445
-0.147551
-0.147617
-0.147648
-0.14764
-0.147591
-0.147503
-0.147389
-0.147257
-0.147099
-0.146915
-0.14671
-0.146482
-0.14623
-0.14595
-0.145638
0.236228
0.236299
0.236323
0.236027
0.235117
0.233314
0.230405
0.226149
0.220414
0.213138
0.204277
0.193881
0.182113
0.169135
0.155186
0.140511
0.125336
0.109747
0.0938587
0.0779049
0.06212
0.04672
0.031911
0.0177941
0.00447722
-0.00800455
-0.0196359
-0.0304262
-0.040396
-0.0495774
-0.0580382
-0.0658034
-0.0729244
-0.0794667
-0.0854643
-0.0909581
-0.0959922
-0.100604
-0.104837
-0.108708
-0.11225
-0.115507
-0.118485
-0.121212
-0.123716
-0.126004
-0.128092
-0.130002
-0.131745
-0.133331
-0.134778
-0.136091
-0.137279
-0.138352
-0.139323
-0.140199
-0.140979
-0.141665
-0.142269
-0.142808
-0.14328
-0.14368
-0.14402
-0.144305
-0.144532
-0.144707
-0.144838
-0.144931
-0.144984
-0.144993
-0.144962
-0.144898
-0.144813
-0.144702
-0.144564
-0.144403
-0.144219
-0.144007
-0.143766
-0.143492
0.228449
0.228564
0.22868
0.228536
0.227863
0.226406
0.223973
0.220342
0.215385
0.209038
0.201239
0.192004
0.181459
0.169719
0.156977
0.143446
0.129351
0.114853
0.100009
0.0849809
0.069962
0.0551527
0.0407614
0.0269085
0.0137212
0.00125841
-0.0104426
-0.0213704
-0.0315293
-0.0409369
-0.0496472
-0.0576766
-0.0650691
-0.071884
-0.0781519
-0.0839108
-0.0892023
-0.0940621
-0.0985337
-0.102632
-0.106392
-0.109856
-0.113031
-0.115946
-0.118627
-0.121084
-0.123333
-0.125395
-0.127282
-0.129006
-0.130583
-0.132021
-0.133328
-0.134514
-0.135592
-0.13657
-0.137449
-0.138229
-0.138922
-0.139547
-0.140101
-0.140579
-0.140995
-0.141352
-0.141649
-0.141891
-0.142086
-0.142241
-0.142354
-0.142421
-0.142445
-0.142433
-0.142397
-0.142331
-0.142238
-0.142122
-0.14198
-0.141809
-0.141607
-0.14137
0.221175
0.221324
0.221508
0.221483
0.220997
0.219817
0.21777
0.214653
0.210344
0.204778
0.197882
0.189654
0.180184
0.169555
0.15792
0.145458
0.13237
0.118843
0.104969
0.0908479
0.0766227
0.0624648
0.0485735
0.0350779
0.0221176
0.00976966
-0.00191028
-0.0128921
-0.0231649
-0.0327321
-0.0416337
-0.049877
-0.0574978
-0.0645485
-0.0710554
-0.0770527
-0.0825792
-0.0876682
-0.0923617
-0.0966744
-0.100641
-0.104302
-0.107666
-0.11076
-0.113614
-0.116234
-0.118638
-0.120849
-0.122877
-0.124735
-0.126441
-0.128001
-0.129424
-0.130721
-0.131905
-0.132984
-0.133959
-0.134832
-0.135614
-0.136323
-0.136958
-0.137514
-0.138004
-0.138433
-0.138799
-0.139106
-0.139365
-0.139581
-0.139752
-0.139876
-0.139957
-0.140003
-0.14001
-0.139988
-0.13994
-0.139867
-0.139766
-0.139636
-0.139472
-0.139272
0.214358
0.214531
0.214767
0.214832
0.214494
0.213539
0.211808
0.209115
0.205346
0.200438
0.194315
0.186955
0.17843
0.168792
0.158161
0.14669
0.134549
0.121911
0.108917
0.0956534
0.0822159
0.0687383
0.0554006
0.0423317
0.0296762
0.017524
0.00594509
-0.00501468
-0.0153308
-0.0249936
-0.0340291
-0.0424358
-0.0502408
-0.057489
-0.0642017
-0.0704091
-0.076146
-0.0814433
-0.0863408
-0.0908527
-0.0950124
-0.0988594
-0.102402
-0.105668
-0.108686
-0.111463
-0.114018
-0.116372
-0.118537
-0.120526
-0.122357
-0.124036
-0.125573
-0.126978
-0.128266
-0.129445
-0.130514
-0.131478
-0.132347
-0.13314
-0.133854
-0.134486
-0.13505
-0.135549
-0.135983
-0.136355
-0.136677
-0.136953
-0.137182
-0.137361
-0.137496
-0.137592
-0.137649
-0.137674
-0.137669
-0.137639
-0.13758
-0.137489
-0.137364
-0.1372
0.207955
0.208146
0.208419
0.208554
0.208334
0.20756
0.206088
0.203747
0.200432
0.196081
0.190617
0.184009
0.176311
0.167552
0.157829
0.147266
0.136009
0.124211
0.112014
0.0995424
0.086862
0.0740675
0.061312
0.0487166
0.0364246
0.0245335
0.0131234
0.00225264
-0.00804273
-0.0177411
-0.0268559
-0.0353767
-0.0433221
-0.0507289
-0.0576135
-0.0640012
-0.069923
-0.0754061
-0.0804883
-0.0851828
-0.0895211
-0.0935415
-0.097252
-0.100681
-0.103854
-0.106782
-0.10948
-0.111973
-0.11427
-0.116386
-0.118337
-0.120132
-0.121779
-0.123291
-0.12468
-0.125955
-0.127118
-0.128171
-0.129125
-0.129999
-0.130792
-0.131499
-0.132135
-0.132704
-0.133204
-0.13364
-0.134024
-0.134358
-0.134644
-0.134878
-0.135065
-0.135211
-0.135319
-0.13539
-0.135429
-0.13544
-0.135422
-0.13537
-0.135282
-0.135154
0.201929
0.202131
0.202431
0.20262
0.202493
0.201866
0.200609
0.198562
0.195628
0.19175
0.186851
0.180894
0.173919
0.165941
0.157032
0.147297
0.136859
0.12585
0.1144
0.10265
0.09068
0.0785512
0.0663861
0.0542916
0.0424042
0.0308242
0.019638
0.00891322
-0.00130492
-0.0109847
-0.0201278
-0.0287159
-0.0367591
-0.0442864
-0.0513089
-0.0578469
-0.0639269
-0.0695728
-0.0748195
-0.0796787
-0.0841802
-0.0883605
-0.0922274
-0.0958079
-0.0991286
-0.102199
-0.105034
-0.107658
-0.110082
-0.112319
-0.114387
-0.116294
-0.118048
-0.119663
-0.121151
-0.12252
-0.123773
-0.124913
-0.125951
-0.126905
-0.127774
-0.128555
-0.129261
-0.129898
-0.130463
-0.130962
-0.131406
-0.131799
-0.13214
-0.132428
-0.132666
-0.132863
-0.133019
-0.133135
-0.133218
-0.13327
-0.133291
-0.133278
-0.133227
-0.133136
0.196245
0.196455
0.196774
0.197003
0.196949
0.196443
0.195363
0.193562
0.190952
0.187477
0.183064
0.177672
0.17133
0.164043
0.155864
0.146881
0.137196
0.126924
0.11618
0.105097
0.0937828
0.0822879
0.070705
0.0591224
0.0476654
0.0364325
0.0255131
0.0149809
0.00488826
-0.00472499
-0.0138504
-0.0224623
-0.0305631
-0.0381742
-0.0453013
-0.0519597
-0.0581714
-0.0639566
-0.0693468
-0.0743525
-0.079001
-0.083327
-0.0873377
-0.0910591
-0.0945171
-0.0977205
-0.100685
-0.103435
-0.105979
-0.108333
-0.110512
-0.112527
-0.114385
-0.116098
-0.117681
-0.119142
-0.120483
-0.121708
-0.122827
-0.123858
-0.124802
-0.125655
-0.12643
-0.127133
-0.127763
-0.128324
-0.128827
-0.129276
-0.129672
-0.130012
-0.130301
-0.130547
-0.13075
-0.130912
-0.131037
-0.131129
-0.13119
-0.131214
-0.131201
-0.131144
0.190876
0.19109
0.191421
0.19168
0.191684
0.191276
0.190343
0.18875
0.186414
0.183285
0.179291
0.17439
0.168604
0.161927
0.154402
0.146098
0.137104
0.127516
0.117435
0.106983
0.0962726
0.0853714
0.0743504
0.0632778
0.0522636
0.0414017
0.0307806
0.020478
0.0105507
0.00104502
-0.00802184
-0.0166183
-0.0247395
-0.0323998
-0.0395997
-0.0463495
-0.0526668
-0.0585677
-0.0640806
-0.069214
-0.0739929
-0.0784499
-0.0825913
-0.0864421
-0.0900271
-0.0933549
-0.0964411
-0.099308
-0.101967
-0.104431
-0.106717
-0.108835
-0.110792
-0.112601
-0.114276
-0.115825
-0.117251
-0.118557
-0.119755
-0.120863
-0.121879
-0.122802
-0.123644
-0.124412
-0.125104
-0.125725
-0.126286
-0.126791
-0.12724
-0.127632
-0.127971
-0.128264
-0.128514
-0.128719
-0.128886
-0.129019
-0.129118
-0.12918
-0.129202
-0.129181
0.185794
0.18601
0.186349
0.186629
0.186678
0.186351
0.18554
0.184123
0.182021
0.179189
0.175558
0.171085
0.165787
0.159651
0.15271
0.145021
0.136656
0.127699
0.118238
0.108384
0.0982394
0.0878888
0.0774011
0.0668261
0.0562569
0.0457789
0.035478
0.0254327
0.0157026
0.00633881
-0.00263445
-0.0111806
-0.0192886
-0.026966
-0.0342088
-0.0410225
-0.0474199
-0.0534136
-0.0590284
-0.0642709
-0.0691635
-0.0737364
-0.0779953
-0.0819635
-0.0856648
-0.0891075
-0.0923066
-0.0952837
-0.0980502
-0.100618
-0.103006
-0.105221
-0.107273
-0.109174
-0.110937
-0.112571
-0.114079
-0.115464
-0.116739
-0.117919
-0.119006
-0.119997
-0.120905
-0.121736
-0.122488
-0.123168
-0.123785
-0.124344
-0.124846
-0.125288
-0.125676
-0.126016
-0.12631
-0.126559
-0.126767
-0.126939
-0.127076
-0.127175
-0.127233
-0.127245
0.180977
0.181193
0.181535
0.181829
0.181915
0.181652
0.180944
0.179677
0.177776
0.1752
0.171884
0.167786
0.162917
0.157261
0.150842
0.143707
0.135916
0.12754
0.118656
0.109363
0.0997557
0.0899175
0.0799304
0.0698334
0.0597028
0.0496134
0.0396457
0.0298773
0.020369
0.0111749
0.00232471
-0.00614105
-0.0142059
-0.0218715
-0.0291296
-0.0359811
-0.0424347
-0.0484991
-0.0541956
-0.0595288
-0.0645184
-0.0691924
-0.0735552
-0.0776287
-0.0814355
-0.0849833
-0.0882865
-0.0913659
-0.0942327
-0.0968989
-0.0993818
-0.10169
-0.103832
-0.105819
-0.107667
-0.109382
-0.110969
-0.112431
-0.113778
-0.11503
-0.116185
-0.117242
-0.118213
-0.119105
-0.119917
-0.120653
-0.121325
-0.121938
-0.12249
-0.122981
-0.123416
-0.123802
-0.124141
-0.124433
-0.124679
-0.12489
-0.125064
-0.1252
-0.125292
-0.125339
0.176404
0.176619
0.17696
0.177264
0.177376
0.177167
0.176546
0.175405
0.173677
0.171324
0.168283
0.164513
0.160023
0.154794
0.148841
0.142206
0.134937
0.127094
0.118745
0.109978
0.100879
0.0915255
0.0820053
0.072362
0.0626571
0.0529539
0.0433255
0.0338469
0.0245782
0.0155754
0.00687242
-0.00148739
-0.00948303
-0.0171112
-0.0243595
-0.031225
-0.0377122
-0.0438262
-0.049585
-0.0549912
-0.0600617
-0.0648218
-0.0692751
-0.0734418
-0.0773431
-0.0809861
-0.0843845
-0.0875582
-0.090518
-0.0932757
-0.095848
-0.0982431
-0.10047
-0.102541
-0.104468
-0.106261
-0.107924
-0.109458
-0.110877
-0.112196
-0.113417
-0.114537
-0.11557
-0.116521
-0.11739
-0.118182
-0.118908
-0.119571
-0.120173
-0.120712
-0.121193
-0.121623
-0.122006
-0.122339
-0.122625
-0.122873
-0.123084
-0.123255
-0.123381
-0.123461
0.172057
0.172268
0.172607
0.172916
0.173049
0.172884
0.172335
0.171303
0.169724
0.167564
0.164763
0.161283
0.157128
0.152278
0.146744
0.140559
0.133765
0.126411
0.118557
0.11028
0.10166
0.0927669
0.0836854
0.0744693
0.0651729
0.055848
0.0465592
0.0373771
0.0283603
0.019565
0.0110284
0.00279559
-0.0051087
-0.0126768
-0.0198931
-0.0267507
-0.0332508
-0.0393949
-0.0451977
-0.0506598
-0.0557953
-0.0606273
-0.065158
-0.0694059
-0.0733908
-0.0771191
-0.0806036
-0.0838634
-0.0869089
-0.0897512
-0.0924069
-0.0948837
-0.0971907
-0.0993395
-0.101343
-0.10321
-0.104944
-0.106548
-0.108035
-0.109419
-0.110703
-0.111885
-0.112977
-0.113986
-0.11491
-0.115755
-0.116532
-0.117246
-0.117895
-0.118481
-0.119007
-0.11948
-0.119904
-0.120277
-0.120604
-0.12089
-0.121136
-0.12134
-0.1215
-0.121612
0.167918
0.168125
0.16846
0.168771
0.168919
0.168789
0.168301
0.167362
0.165913
0.163921
0.161332
0.158107
0.154249
0.149738
0.14458
0.138802
0.132439
0.125533
0.118135
0.110315
0.102144
0.0936872
0.0850223
0.0762072
0.0672992
0.0583407
0.0493872
0.0405037
0.031746
0.0231698
0.0148141
0.00672539
-0.00106905
-0.00855773
-0.0157224
-0.0225528
-0.0290469
-0.0352029
-0.0410326
-0.0465345
-0.0517201
-0.0566101
-0.0612053
-0.0655227
-0.0695804
-0.0733842
-0.0769459
-0.0802837
-0.0834073
-0.0863276
-0.0890603
-0.0916133
-0.0939952
-0.0962174
-0.0982927
-0.10023
-0.102032
-0.103702
-0.105253
-0.106701
-0.108045
-0.109286
-0.110435
-0.111498
-0.112476
-0.113373
-0.1142
-0.114962
-0.115658
-0.116288
-0.116858
-0.117373
-0.117837
-0.118249
-0.118616
-0.118938
-0.119219
-0.119456
-0.119649
-0.119792
0.163973
0.164176
0.164504
0.164814
0.164973
0.164871
0.164435
0.163576
0.16224
0.160397
0.157994
0.154994
0.151401
0.147193
0.142372
0.136961
0.130991
0.124494
0.117518
0.110122
0.102373
0.0943268
0.0860581
0.077622
0.0690811
0.0604743
0.0518482
0.0432615
0.0347661
0.0264164
0.0182525
0.010321
0.00265149
-0.00474154
-0.0118376
-0.0186237
-0.0250947
-0.0312463
-0.037087
-0.0426137
-0.0478353
-0.05277
-0.0574175
-0.0617929
-0.0659131
-0.0697827
-0.0734127
-0.0768204
-0.0800148
-0.0830062
-0.0858099
-0.0884333
-0.0908849
-0.0931757
-0.0953183
-0.097321
-0.0991875
-0.100922
-0.102534
-0.104041
-0.105443
-0.10674
-0.107944
-0.10906
-0.110089
-0.111037
-0.111912
-0.11272
-0.113461
-0.114135
-0.114747
-0.115303
-0.115806
-0.116257
-0.116661
-0.117019
-0.117333
-0.117603
-0.117827
-0.118002
0.160208
0.160406
0.160727
0.161034
0.161199
0.161121
0.160728
0.159939
0.158701
0.156988
0.154749
0.151951
0.148594
0.144657
0.140139
0.135062
0.129448
0.123327
0.116739
0.109737
0.10238
0.0947219
0.086829
0.0787537
0.0705593
0.0622877
0.0539786
0.0456838
0.0374507
0.0293315
0.0213664
0.0136022
0.00606965
-0.00121431
-0.00822737
-0.0149543
-0.0213873
-0.0275195
-0.0333568
-0.0388944
-0.0441387
-0.0491057
-0.0537939
-0.0582165
-0.0623889
-0.066315
-0.0700048
-0.0734743
-0.0767322
-0.079788
-0.0826564
-0.0853446
-0.0878607
-0.0902154
-0.0924208
-0.0944854
-0.0964126
-0.0982062
-0.099877
-0.101441
-0.102898
-0.104249
-0.105505
-0.106672
-0.107751
-0.108746
-0.109668
-0.11052
-0.111305
-0.112022
-0.112674
-0.11327
-0.113812
-0.1143
-0.114739
-0.115131
-0.115477
-0.11578
-0.116036
-0.116241
0.15661
0.156803
0.157116
0.157418
0.157588
0.157528
0.157172
0.156443
0.155291
0.153692
0.1516
0.148981
0.145835
0.142142
0.137898
0.133122
0.127833
0.122056
0.115825
0.109188
0.102199
0.0949047
0.0873673
0.0796357
0.0717702
0.0638167
0.0558122
0.047802
0.0398285
0.0319409
0.0241792
0.0165892
0.00920282
0.00203875
-0.00487934
-0.0115343
-0.0179161
-0.0240158
-0.0298367
-0.0353725
-0.0406274
-0.045615
-0.0503327
-0.0547922
-0.0590072
-0.0629808
-0.0667219
-0.0702456
-0.0735598
-0.0766734
-0.0796005
-0.0823478
-0.0849231
-0.0873369
-0.0896009
-0.0917231
-0.0937073
-0.0955571
-0.0972829
-0.0989002
-0.10041
-0.101812
-0.103118
-0.104334
-0.10546
-0.106501
-0.107467
-0.108364
-0.10919
-0.109947
-0.11064
-0.111274
-0.111853
-0.112377
-0.112851
-0.113275
-0.113654
-0.113988
-0.114274
-0.114509
0.15317
0.153357
0.153661
0.153957
0.154129
0.154083
0.153758
0.153081
0.152005
0.150508
0.148545
0.146086
0.14313
0.139656
0.135661
0.131158
0.126166
0.120704
0.114802
0.108504
0.101856
0.0949038
0.087702
0.080297
0.0727454
0.0650935
0.0573802
0.0496456
0.0419268
0.0342697
0.0267132
0.0193021
0.0120686
0.00503293
-0.00178039
-0.00835266
-0.014672
-0.0207275
-0.0265204
-0.0320429
-0.0372971
-0.0422946
-0.0470317
-0.0515183
-0.0557667
-0.0597792
-0.0635636
-0.0671339
-0.0704973
-0.0736623
-0.076642
-0.0794429
-0.0820724
-0.0845405
-0.0868586
-0.0890346
-0.091072
-0.0929744
-0.0947522
-0.0964201
-0.0979796
-0.0994304
-0.100784
-0.102046
-0.103217
-0.104303
-0.105312
-0.10625
-0.107116
-0.107913
-0.108643
-0.109314
-0.109929
-0.110489
-0.110997
-0.111452
-0.111862
-0.112226
-0.112542
-0.112806
0.149875
0.150057
0.150352
0.150641
0.150812
0.150778
0.150479
0.149846
0.148837
0.14743
0.145585
0.143269
0.140483
0.137208
0.133437
0.129183
0.124462
0.119289
0.113691
0.107705
0.101377
0.0947443
0.0878591
0.0807638
0.0735115
0.0661468
0.0587109
0.0512416
0.0437713
0.0363417
0.0289904
0.0217606
0.0146847
0.00778372
0.00108297
-0.00539774
-0.011645
-0.0176463
-0.0234009
-0.0288997
-0.0341431
-0.0391406
-0.0438875
-0.0483921
-0.0526652
-0.0567084
-0.0605284
-0.0641382
-0.0675442
-0.0707543
-0.0737808
-0.0766298
-0.0793085
-0.0818262
-0.0841941
-0.0864198
-0.0885066
-0.0904583
-0.0922847
-0.0940004
-0.0956068
-0.0971036
-0.0985022
-0.0998087
-0.101023
-0.10215
-0.103201
-0.104178
-0.105084
-0.105918
-0.106685
-0.107392
-0.108041
-0.108634
-0.109175
-0.109662
-0.110103
-0.110497
-0.110841
-0.111132
0.146718
0.146893
0.14718
0.14746
0.14763
0.147604
0.147327
0.146734
0.145784
0.144457
0.142715
0.140529
0.137897
0.134801
0.131234
0.127208
0.122734
0.117826
0.112508
0.106813
0.100782
0.0944488
0.0878615
0.0810595
0.0740922
0.0670019
0.0598301
0.0526153
0.0453856
0.0381791
0.0310313
0.0239836
0.0170681
0.0103065
0.00372436
-0.00265758
-0.00882471
-0.0147632
-0.0204705
-0.0259366
-0.03116
-0.0361485
-0.0408964
-0.0454105
-0.0497003
-0.0537665
-0.0576148
-0.0612572
-0.0646993
-0.0679484
-0.0710161
-0.073908
-0.0766309
-0.0791937
-0.0816072
-0.0838785
-0.0860112
-0.0880087
-0.0898805
-0.091641
-0.0932914
-0.0948318
-0.0962732
-0.0976215
-0.0988768
-0.100044
-0.101134
-0.10215
-0.103092
-0.103963
-0.104765
-0.105506
-0.106188
-0.106812
-0.107382
-0.107905
-0.108376
-0.108798
-0.109169
-0.109487
0.143689
0.143859
0.144135
0.144407
0.144574
0.144554
0.144296
0.143737
0.14284
0.141585
0.139936
0.137866
0.135374
0.13244
0.129059
0.12524
0.120993
0.116329
0.111269
0.105844
0.100089
0.0940366
0.0877297
0.081205
0.0745088
0.0676807
0.0607609
0.0537893
0.0467919
0.039803
0.0328556
0.0259894
0.0192356
0.0126163
0.00615731
-0.000120192
-0.00620057
-0.0120689
-0.0177212
-0.0231465
-0.0283419
-0.0333132
-0.0380542
-0.04257
-0.0468689
-0.0509509
-0.0548206
-0.058489
-0.0619612
-0.0652435
-0.0683469
-0.0712766
-0.0740389
-0.0766424
-0.0790972
-0.0814104
-0.0835853
-0.0856252
-0.0875394
-0.0893416
-0.0910335
-0.0926148
-0.0940965
-0.0954845