/*--------------------------------*- C++ -*----------------------------------*\
| =========                 |                                                 |
| \\      /  F ield         | OpenFOAM: The Open Source CFD Toolbox           |
|  \\    /   O peration     | Version:  2412                                  |
|   \\  /    A nd           | Website:  www.openfoam.com                      |
|    \\/     M anipulation  |                                                 |
\*---------------------------------------------------------------------------*/
FoamFile
{
    version     2.0;
    format      ascii;
    arch        "LSB;label=32;scalar=64";
    class       volScalarField;
    location    "0.29762";
    object      p;
}
// * * * * * * * * * * * * * * * * * * * * * * * * * * * * * * * * * * * * * //

dimensions      [0 2 -2 0 0 0 0];

internalField   nonuniform List<scalar> 
257400
(
-0.520236
-0.765362
-0.946382
-1.06707
-1.13194
-1.1572
-1.15615
-1.13805
-1.10947
-1.07892
-1.0478
-1.01818
-0.989444
-0.963115
-0.938555
-0.91532
-0.893805
-0.873346
-0.854694
-0.836988
-0.820307
-0.804722
-0.790117
-0.776398
-0.763221
-0.750781
-0.739029
-0.727875
-0.717122
-0.706911
-0.697189
-0.687906
-0.678858
-0.670282
-0.662041
-0.65412
-0.646434
-0.639047
-0.631934
-0.625071
-0.618422
-0.611965
-0.605727
-0.599677
-0.593796
-0.588135
-0.582635
-0.57726
-0.572041
-0.566968
-0.562026
-0.557219
-0.552528
-0.547947
-0.5435
-0.539153
-0.5349
-0.530768
-0.526712
-0.522777
-0.518903
-0.515121
-0.511442
-0.507829
-0.504276
-0.500815
-0.497437
-0.494095
-0.490828
-0.487649
-0.484504
-0.481422
-0.478415
-0.475441
-0.472497
-0.469652
-0.466868
-0.464118
-0.461429
-0.458834
-0.434292
-0.6286
-0.795466
-0.933041
-1.03103
-1.09037
-1.11719
-1.12225
-1.10974
-1.08822
-1.06212
-1.03497
-1.00701
-0.980467
-0.955473
-0.931655
-0.909495
-0.88824
-0.868824
-0.850456
-0.833089
-0.816807
-0.801551
-0.787337
-0.773659
-0.760708
-0.748484
-0.736962
-0.725807
-0.715198
-0.705107
-0.695531
-0.686215
-0.677311
-0.668779
-0.660623
-0.652689
-0.645055
-0.637705
-0.630627
-0.623798
-0.617136
-0.610711
-0.604554
-0.598341
-0.592449
-0.586819
-0.581301
-0.575926
-0.570721
-0.565634
-0.560682
-0.555864
-0.551166
-0.546598
-0.542126
-0.537755
-0.533489
-0.529328
-0.525256
-0.521285
-0.517393
-0.513587
-0.509873
-0.506233
-0.502666
-0.499178
-0.495761
-0.49241
-0.489128
-0.48591
-0.482751
-0.479656
-0.476618
-0.473631
-0.470706
-0.467846
-0.465045
-0.462303
-0.459634
-0.304305
-0.474244
-0.635731
-0.784778
-0.907584
-0.996887
-1.05263
-1.08253
-1.08903
-1.08027
-1.0619
-1.03936
-1.01418
-0.989005
-0.964642
-0.941075
-0.918914
-0.897546
-0.877755
-0.859064
-0.841364
-0.824683
-0.808988
-0.794347
-0.780351
-0.767057
-0.754472
-0.742622
-0.731209
-0.720319
-0.709945
-0.70011
-0.690579
-0.681449
-0.672696
-0.664341
-0.656235
-0.648425
-0.6409
-0.633656
-0.626677
-0.619873
-0.613298
-0.60698
-0.600838
-0.594829
-0.589049
-0.583421
-0.577926
-0.572628
-0.567449
-0.56241
-0.557558
-0.552656
-0.548043
-0.54351
-0.539086
-0.534744
-0.530535
-0.526398
-0.522376
-0.518436
-0.514579
-0.510818
-0.507133
-0.503518
-0.499981
-0.496524
-0.493132
-0.489805
-0.486549
-0.483353
-0.480216
-0.47714
-0.474119
-0.471154
-0.468252
-0.465409
-0.462628
-0.459915
-0.200715
-0.342665
-0.485609
-0.629286
-0.762102
-0.873685
-0.956915
-1.01254
-1.04328
-1.0541
-1.04961
-1.03618
-1.01665
-0.994696
-0.972139
-0.949513
-0.927836
-0.906585
-0.886722
-0.867859
-0.849914
-0.832929
-0.816893
-0.801936
-0.787623
-0.77401
-0.76111
-0.748984
-0.737294
-0.726133
-0.715495
-0.705433
-0.695679
-0.686326
-0.677355
-0.668812
-0.660521
-0.652528
-0.644827
-0.637417
-0.630292
-0.623338
-0.616614
-0.610145
-0.603858
-0.597705
-0.591811
-0.586074
-0.580458
-0.575052
-0.569767
-0.564615
-0.559639
-0.554761
-0.550009
-0.545376
-0.54087
-0.536431
-0.532152
-0.527925
-0.52384
-0.519833
-0.515856
-0.51204
-0.5083
-0.504619
-0.501013
-0.497504
-0.494056
-0.490668
-0.487362
-0.484115
-0.480923
-0.4778
-0.474742
-0.471726
-0.468769
-0.465878
-0.463045
-0.460272
-0.121924
-0.236489
-0.364148
-0.492889
-0.620664
-0.739575
-0.840056
-0.917964
-0.971822
-1.00435
-1.01801
-1.01822
-1.00825
-0.992519
-0.973872
-0.953635
-0.933435
-0.913008
-0.893575
-0.874888
-0.856967
-0.839886
-0.823664
-0.808505
-0.79397
-0.780117
-0.766958
-0.754604
-0.742682
-0.731286
-0.720412
-0.710148
-0.700191
-0.690636
-0.681467
-0.672753
-0.664294
-0.656133
-0.648269
-0.640706
-0.633449
-0.626356
-0.619495
-0.612902
-0.606513
-0.600239
-0.594236
-0.588398
-0.582669
-0.57717
-0.571791
-0.566545
-0.561479
-0.556509
-0.551672
-0.546966
-0.542393
-0.537872
-0.533527
-0.529225
-0.525074
-0.521002
-0.516995
-0.513103
-0.509306
-0.505567
-0.501899
-0.498343
-0.494848
-0.491404
-0.488053
-0.48476
-0.481519
-0.478354
-0.475259
-0.472195
-0.469187
-0.466247
-0.463362
-0.460525
-0.0653103
-0.163366
-0.272533
-0.383615
-0.49923
-0.613829
-0.719344
-0.810062
-0.881555
-0.93299
-0.965464
-0.982111
-0.985312
-0.979181
-0.967199
-0.951456
-0.934244
-0.915762
-0.897549
-0.879623
-0.862171
-0.845337
-0.829191
-0.814026
-0.79943
-0.78547
-0.772158
-0.759656
-0.747576
-0.736008
-0.724949
-0.714522
-0.704401
-0.694677
-0.685335
-0.676472
-0.667865
-0.659556
-0.651545
-0.64384
-0.636461
-0.629242
-0.622252
-0.615542
-0.609051
-0.602658
-0.596551
-0.590619
-0.584784
-0.579193
-0.573725
-0.568387
-0.563238
-0.558189
-0.553272
-0.548489
-0.543849
-0.539248
-0.534842
-0.530467
-0.526256
-0.522123
-0.518048
-0.514095
-0.510249
-0.506455
-0.502728
-0.499125
-0.495582
-0.492086
-0.488691
-0.485357
-0.482067
-0.478858
-0.475729
-0.472617
-0.469559
-0.466573
-0.463638
-0.460722
-0.0236384
-0.108693
-0.203996
-0.299422
-0.401091
-0.505337
-0.607214
-0.701339
-0.782543
-0.847802
-0.895888
-0.928378
-0.946204
-0.952111
-0.949397
-0.940492
-0.928148
-0.913102
-0.897217
-0.880887
-0.864542
-0.84845
-0.832768
-0.817889
-0.80347
-0.789601
-0.776295
-0.763768
-0.751635
-0.73999
-0.728822
-0.718292
-0.708063
-0.698222
-0.688751
-0.679771
-0.671049
-0.662621
-0.654491
-0.646667
-0.639185
-0.63186
-0.624759
-0.617947
-0.611367
-0.604871
-0.598672
-0.592657
-0.586726
-0.581053
-0.575505
-0.570082
-0.56486
-0.559738
-0.554746
-0.549893
-0.545193
-0.540518
-0.536056
-0.531612
-0.527345
-0.523158
-0.519021
-0.515012
-0.511118
-0.507273
-0.503489
-0.499842
-0.496257
-0.492709
-0.489272
-0.485897
-0.482561
-0.479311
-0.476148
-0.472992
-0.469884
-0.46685
-0.463858
-0.460889
0.00825729
-0.0647903
-0.14303
-0.23354
-0.322816
-0.41525
-0.509375
-0.600619
-0.684469
-0.757241
-0.816283
-0.861312
-0.892521
-0.910978
-0.919044
-0.918873
-0.91323
-0.903253
-0.891027
-0.877355
-0.862953
-0.848264
-0.833574
-0.819389
-0.805481
-0.79198
-0.778909
-0.766534
-0.754505
-0.742918
-0.731756
-0.721213
-0.710957
-0.701073
-0.691537
-0.682492
-0.673703
-0.6652
-0.65699
-0.649081
-0.641523
-0.634122
-0.626937
-0.620043
-0.613395
-0.606817
-0.60054
-0.594459
-0.588449
-0.582705
-0.57709
-0.571596
-0.566311
-0.561125
-0.556069
-0.551153
-0.546402
-0.54166
-0.537149
-0.532645
-0.528326
-0.524091
-0.519899
-0.515839
-0.511902
-0.508011
-0.504176
-0.500488
-0.496863
-0.493268
-0.489791
-0.486378
-0.482999
-0.479709
-0.476513
-0.473316
-0.470161
-0.467082
-0.464041
-0.461008
0.0327565
-0.0322517
-0.102985
-0.181664
-0.259456
-0.341559
-0.426729
-0.511825
-0.593576
-0.668461
-0.733453
-0.787115
-0.828633
-0.858127
-0.876865
-0.886232
-0.888525
-0.884987
-0.877707
-0.86782
-0.856305
-0.843798
-0.830736
-0.817755
-0.80478
-0.792
-0.779457
-0.767471
-0.75575
-0.744399
-0.733396
-0.722963
-0.712793
-0.702966
-0.693453
-0.684415
-0.675624
-0.667107
-0.658873
-0.650926
-0.643332
-0.635893
-0.628663
-0.621717
-0.615028
-0.608398
-0.602067
-0.595941
-0.589876
-0.584079
-0.578416
-0.572867
-0.567532
-0.562298
-0.557193
-0.552225
-0.547435
-0.542638
-0.538087
-0.533533
-0.529171
-0.524897
-0.520659
-0.516554
-0.51258
-0.50865
-0.50477
-0.501046
-0.497387
-0.493751
-0.490238
-0.486791
-0.483372
-0.480045
-0.476819
-0.473583
-0.470385
-0.467266
-0.464183
-0.461083
0.0517827
-0.00656613
-0.0696141
-0.140457
-0.20912
-0.281982
-0.357966
-0.435702
-0.512775
-0.586103
-0.652909
-0.71128
-0.759813
-0.797654
-0.825495
-0.843916
-0.854428
-0.858066
-0.856666
-0.851524
-0.843788
-0.834246
-0.823493
-0.812281
-0.800716
-0.789058
-0.777389
-0.766076
-0.754909
-0.744006
-0.733351
-0.723183
-0.713237
-0.703592
-0.694215
-0.685275
-0.676568
-0.668115
-0.659928
-0.652007
-0.644429
-0.637005
-0.629777
-0.622822
-0.616129
-0.609486
-0.603132
-0.596991
-0.590901
-0.585077
-0.579389
-0.573809
-0.568445
-0.563182
-0.558047
-0.553043
-0.548229
-0.543395
-0.538815
-0.534228
-0.529833
-0.525531
-0.52126
-0.517121
-0.513118
-0.50916
-0.505244
-0.501489
-0.497804
-0.494134
-0.49059
-0.487115
-0.483663
-0.480302
-0.47705
-0.473781
-0.470545
-0.467389
-0.464273
-0.46111
0.0668591
0.0144904
-0.0408221
-0.0997505
-0.167889
-0.233196
-0.300794
-0.371273
-0.442594
-0.512299
-0.57808
-0.637969
-0.690397
-0.733934
-0.768572
-0.794544
-0.812604
-0.823371
-0.828222
-0.828412
-0.825115
-0.819199
-0.811373
-0.80248
-0.792805
-0.782685
-0.772252
-0.761918
-0.751573
-0.741354
-0.731255
-0.721529
-0.711966
-0.702646
-0.693533
-0.684802
-0.676279
-0.667984
-0.659928
-0.652109
-0.644612
-0.637265
-0.630101
-0.623188
-0.616535
-0.609929
-0.603593
-0.597473
-0.591397
-0.585577
-0.579895
-0.574314
-0.568947
-0.56368
-0.55854
-0.553523
-0.548703
-0.543854
-0.539264
-0.534661
-0.530249
-0.525934
-0.521646
-0.517486
-0.513467
-0.509493
-0.505554
-0.501779
-0.498077
-0.494383
-0.490816
-0.487321
-0.483845
-0.480456
-0.477183
-0.473888
-0.470621
-0.467432
-0.464297
-0.461076
0.0789415
0.0314574
-0.0189204
-0.0735214
-0.134081
-0.192305
-0.25321
-0.316939
-0.382283
-0.447451
-0.510535
-0.569731
-0.623555
-0.670356
-0.709651
-0.741235
-0.765486
-0.782643
-0.79352
-0.79916
-0.800622
-0.798755
-0.794318
-0.788199
-0.780835
-0.77263
-0.763776
-0.754724
-0.745467
-0.736166
-0.726834
-0.717734
-0.708721
-0.699874
-0.691163
-0.68276
-0.674531
-0.666494
-0.658661
-0.651029
-0.643688
-0.636488
-0.629455
-0.622644
-0.616084
-0.60957
-0.6033
-0.597242
-0.591225
-0.585448
-0.579809
-0.574264
-0.568925
-0.563684
-0.558568
-0.553565
-0.548764
-0.543927
-0.539346
-0.534752
-0.530342
-0.526033
-0.521747
-0.517585
-0.513563
-0.509589
-0.505644
-0.50186
-0.498155
-0.494452
-0.490872
-0.487367
-0.483878
-0.480472
-0.477185
-0.473874
-0.470585
-0.467372
-0.46423
-0.460959
0.0886382
0.0451829
-0.000808941
-0.0499215
-0.10434
-0.15852
-0.21364
-0.271039
-0.330681
-0.391062
-0.450598
-0.507748
-0.561202
-0.609315
-0.651356
-0.686828
-0.715678
-0.738026
-0.754222
-0.764991
-0.771165
-0.773487
-0.772688
-0.769646
-0.764905
-0.758917
-0.75193
-0.744423
-0.736493
-0.728323
-0.719955
-0.711657
-0.703352
-0.695121
-0.686945
-0.678988
-0.671163
-0.663484
-0.655968
-0.648609
-0.6415
-0.63452
-0.627686
-0.621043
-0.614631
-0.608266
-0.602115
-0.596165
-0.590256
-0.584564
-0.579008
-0.573538
-0.568262
-0.563081
-0.558022
-0.553065
-0.54831
-0.543515
-0.538968
-0.53441
-0.530025
-0.525743
-0.521485
-0.51734
-0.513334
-0.50938
-0.505448
-0.501672
-0.497978
-0.494282
-0.490705
-0.487203
-0.483715
-0.480304
-0.477015
-0.473699
-0.470402
-0.467172
-0.464039
-0.460731
0.0964804
0.05652
0.0145922
-0.0294446
-0.0764647
-0.129902
-0.180113
-0.232045
-0.286512
-0.342194
-0.397881
-0.452264
-0.504224
-0.552242
-0.595496
-0.633343
-0.665426
-0.691649
-0.71215
-0.727396
-0.737926
-0.744304
-0.747169
-0.747331
-0.745391
-0.741819
-0.736909
-0.731154
-0.724743
-0.717882
-0.710644
-0.703302
-0.695843
-0.688355
-0.680832
-0.673431
-0.666108
-0.65888
-0.651766
-0.644762
-0.63796
-0.631268
-0.624699
-0.618286
-0.612077
-0.605915
-0.599936
-0.594141
-0.588386
-0.582824
-0.57739
-0.572036
-0.56686
-0.561775
-0.556808
-0.551929
-0.547247
-0.542528
-0.538041
-0.533548
-0.529215
-0.524984
-0.520777
-0.516675
-0.512706
-0.508791
-0.504895
-0.501145
-0.49748
-0.493811
-0.490253
-0.486771
-0.483302
-0.479901
-0.476622
-0.473317
-0.470028
-0.466794
-0.463686
-0.460356
0.102857
0.0659371
0.0274019
-0.0132214
-0.0572364
-0.106816
-0.151936
-0.199232
-0.248781
-0.299929
-0.351739
-0.403022
-0.452828
-0.499812
-0.543149
-0.582148
-0.616274
-0.645267
-0.669014
-0.687884
-0.702189
-0.712275
-0.718633
-0.721961
-0.722861
-0.721795
-0.719083
-0.715219
-0.710464
-0.705044
-0.699066
-0.692803
-0.686304
-0.679662
-0.672891
-0.666138
-0.659402
-0.652704
-0.646066
-0.639487
-0.633057
-0.626713
-0.620467
-0.614339
-0.608384
-0.602475
-0.596714
-0.591117
-0.58556
-0.580167
-0.574894
-0.569693
-0.564652
-0.559696
-0.554853
-0.550086
-0.545506
-0.540893
-0.536494
-0.532094
-0.527838
-0.523682
-0.519552
-0.515518
-0.511607
-0.507753
-0.503917
-0.500215
-0.496596
-0.492976
-0.489457
-0.486011
-0.482579
-0.479208
-0.475955
-0.472676
-0.469416
-0.466191
-0.463127
-0.459794
0.108044
0.0737508
0.038092
0.000827036
-0.0381729
-0.079162
-0.127285
-0.171211
-0.216277
-0.263302
-0.311383
-0.359489
-0.406815
-0.452185
-0.494826
-0.534056
-0.569253
-0.600059
-0.626181
-0.647811
-0.665175
-0.678466
-0.687997
-0.694317
-0.697976
-0.699405
-0.698927
-0.697023
-0.694006
-0.690114
-0.685486
-0.680394
-0.674938
-0.669223
-0.66328
-0.657249
-0.651167
-0.645062
-0.638958
-0.632861
-0.626857
-0.620912
-0.615034
-0.609238
-0.603579
-0.597962
-0.59246
-0.587096
-0.581772
-0.576585
-0.571505
-0.566489
-0.561614
-0.556817
-0.552126
-0.547501
-0.543046
-0.538569
-0.534281
-0.53
-0.525847
-0.521789
-0.517759
-0.513816
-0.509986
-0.506214
-0.502459
-0.498824
-0.495273
-0.491721
-0.488261
-0.484871
-0.481495
-0.478172
-0.474962
-0.471728
-0.468516
-0.465319
-0.462314
-0.459003
0.112263
0.0802832
0.0471823
0.0128007
-0.0234689
-0.0628929
-0.107328
-0.147078
-0.188572
-0.231685
-0.276137
-0.321099
-0.365805
-0.409226
-0.450658
-0.489461
-0.52498
-0.55681
-0.584544
-0.608231
-0.627954
-0.643857
-0.656132
-0.665162
-0.671407
-0.675235
-0.676953
-0.677015
-0.675764
-0.673444
-0.670219
-0.666357
-0.662005
-0.657272
-0.652211
-0.646959
-0.641582
-0.636117
-0.630592
-0.62502
-0.619485
-0.613977
-0.608503
-0.603074
-0.597745
-0.59245
-0.587239
-0.582138
-0.577074
-0.572119
-0.567258
-0.562453
-0.557769
-0.553154
-0.548637
-0.544177
-0.53987
-0.53555
-0.531395
-0.527254
-0.523224
-0.519283
-0.515374
-0.511542
-0.507811
-0.504139
-0.500486
-0.496939
-0.493471
-0.490006
-0.486624
-0.483307
-0.480007
-0.476751
-0.473602
-0.47043
-0.467288
-0.464136
-0.461206
-0.45794
0.115692
0.0857523
0.0548643
0.022878
-0.0106074
-0.0455402
-0.0822517
-0.125604
-0.164712
-0.204173
-0.245296
-0.287253
-0.329328
-0.370638
-0.410547
-0.448471
-0.48376
-0.515993
-0.5447
-0.569827
-0.591344
-0.609288
-0.623811
-0.635191
-0.643774
-0.64984
-0.653658
-0.655638
-0.656135
-0.655393
-0.65359
-0.650992
-0.647776
-0.644064
-0.639922
-0.635488
-0.630852
-0.626063
-0.621149
-0.616135
-0.6111
-0.606057
-0.601014
-0.595978
-0.591004
-0.586053
-0.581155
-0.576339
-0.571554
-0.566853
-0.562228
-0.557653
-0.553177
-0.548763
-0.544436
-0.540159
-0.536015
-0.531867
-0.527861
-0.523875
-0.519985
-0.516176
-0.512403
-0.508698
-0.505082
-0.501524
-0.497989
-0.494545
-0.491176
-0.487814
-0.484526
-0.481297
-0.478089
-0.474917
-0.471845
-0.468751
-0.465697
-0.46261
-0.459768
-0.456572
0.118467
0.0903373
0.0614107
0.0315936
0.000564288
-0.0320502
-0.0673361
-0.105945
-0.143405
-0.18021
-0.218304
-0.257375
-0.296887
-0.336044
-0.374259
-0.411012
-0.445678
-0.477843
-0.50701
-0.533054
-0.555863
-0.575391
-0.591696
-0.605015
-0.61563
-0.62372
-0.629492
-0.6333
-0.635491
-0.636298
-0.635909
-0.634581
-0.632517
-0.629844
-0.626644
-0.623054
-0.619185
-0.615093
-0.610815
-0.606381
-0.601871
-0.597313
-0.592719
-0.588095
-0.583496
-0.578903
-0.574335
-0.569819
-0.565327
-0.560893
-0.556518
-0.552184
-0.547929
-0.543727
-0.539602
-0.535518
-0.531547
-0.527583
-0.523737
-0.519915
-0.516176
-0.51251
-0.508882
-0.505315
-0.501825
-0.498393
-0.494986
-0.491656
-0.488397
-0.48515
-0.481968
-0.47884
-0.475737
-0.472661
-0.46968
-0.466679
-0.463727
-0.460723
-0.457978
-0.454874
0.120701
0.0941872
0.0670052
0.039075
0.0100789
-0.0202581
-0.0522013
-0.0862481
-0.125405
-0.159731
-0.194885
-0.231103
-0.268091
-0.30508
-0.341512
-0.376913
-0.410684
-0.442434
-0.471661
-0.498195
-0.521865
-0.542563
-0.560274
-0.575155
-0.587454
-0.597309
-0.604851
-0.610363
-0.614162
-0.616464
-0.617455
-0.617385
-0.616468
-0.614838
-0.612588
-0.609856
-0.606769
-0.603391
-0.599763
-0.595925
-0.591956
-0.587899
-0.583767
-0.57957
-0.57536
-0.571135
-0.566908
-0.562704
-0.558512
-0.554355
-0.550239
-0.546154
-0.542128
-0.538145
-0.534227
-0.530344
-0.526555
-0.522779
-0.519099
-0.515447
-0.511864
-0.508347
-0.50487
-0.501447
-0.49809
-0.494789
-0.491516
-0.488309
-0.485166
-0.482042
-0.478975
-0.475956
-0.472965
-0.469997
-0.467116
-0.464217
-0.461378
-0.458472
-0.45583
-0.452836
0.122484
0.0974189
0.0717928
0.0455395
0.0183906
-0.0098585
-0.0394574
-0.0706124
-0.103283
-0.141131
-0.174561
-0.208071
-0.242582
-0.277402
-0.312012
-0.345957
-0.378651
-0.409734
-0.438716
-0.465397
-0.48957
-0.511078
-0.529856
-0.545989
-0.559663
-0.570988
-0.580078
-0.587138
-0.592435
-0.596155
-0.598474
-0.599628
-0.599839
-0.599242
-0.59794
-0.59607
-0.59377
-0.591114
-0.588147
-0.584915
-0.581499
-0.577953
-0.574294
-0.570533
-0.566721
-0.562873
-0.558994
-0.555111
-0.551226
-0.547352
-0.543501
-0.539668
-0.535877
-0.532118
-0.528411
-0.524732
-0.521128
-0.517541
-0.514032
-0.510551
-0.507128
-0.503763
-0.500439
-0.497161
-0.493941
-0.490774
-0.487637
-0.484556
-0.481534
-0.478535
-0.475586
-0.472681
-0.469807
-0.466952
-0.464179
-0.461389
-0.458667
-0.455871
-0.453332
-0.450462
0.123887
0.100129
0.0759006
0.0511505
0.025638
-0.00083846
-0.0285271
-0.0576257
-0.0885265
-0.121319
-0.156035
-0.187915
-0.220073
-0.252701
-0.285468
-0.317903
-0.349403
-0.379648
-0.408155
-0.434716
-0.459098
-0.481113
-0.500654
-0.517758
-0.532551
-0.545092
-0.555478
-0.563896
-0.570555
-0.575598
-0.579177
-0.581507
-0.582812
-0.583226
-0.582858
-0.581845
-0.580332
-0.578399
-0.576095
-0.573475
-0.57062
-0.567592
-0.564412
-0.561094
-0.55769
-0.554223
-0.550699
-0.547143
-0.543568
-0.539982
-0.536401
-0.532825
-0.529271
-0.525738
-0.522245
-0.518771
-0.515355
-0.511958
-0.50862
-0.505311
-0.502049
-0.498837
-0.495664
-0.492532
-0.489449
-0.486415
-0.483414
-0.480461
-0.47756
-0.474685
-0.471857
-0.469066
-0.46631
-0.463571
-0.460907
-0.458229
-0.455626
-0.452946
-0.450509
-0.447771
0.124972
0.102397
0.0794292
0.0560269
0.0319648
0.00704952
-0.0189456
-0.0461388
-0.0746754
-0.104665
-0.136585
-0.169716
-0.200283
-0.230761
-0.261632
-0.292506
-0.322736
-0.352034
-0.379903
-0.406141
-0.4305
-0.452765
-0.47281
-0.490634
-0.506309
-0.519852
-0.531323
-0.540882
-0.548739
-0.554988
-0.559743
-0.563191
-0.565545
-0.566938
-0.567481
-0.56731
-0.566574
-0.565359
-0.563717
-0.56171
-0.559418
-0.556912
-0.554217
-0.551347
-0.548354
-0.545274
-0.542108
-0.538886
-0.535624
-0.53233
-0.529021
-0.525704
-0.522391
-0.519087
-0.515808
-0.512541
-0.509314
-0.506105
-0.502941
-0.499802
-0.4967
-0.49364
-0.490617
-0.487631
-0.484684
-0.481783
-0.478915
-0.476087
-0.473306
-0.470554
-0.467844
-0.465168
-0.462528
-0.459904
-0.457348
-0.454783
-0.452296
-0.449735
-0.447397
-0.444792
0.125789
0.104288
0.0824619
0.0602745
0.0375152
0.0140056
-0.0104586
-0.035962
-0.06265
-0.0906252
-0.119836
-0.150651
-0.182806
-0.211625
-0.240543
-0.26966
-0.298483
-0.326734
-0.353842
-0.379612
-0.403771
-0.42608
-0.44641
-0.464733
-0.481077
-0.495421
-0.507797
-0.518322
-0.527189
-0.534499
-0.540329
-0.544822
-0.548173
-0.550504
-0.551927
-0.552575
-0.552601
-0.552091
-0.551105
-0.549706
-0.547977
-0.545994
-0.543784
-0.541364
-0.538787
-0.536096
-0.533293
-0.530407
-0.527462
-0.524463
-0.52143
-0.518373
-0.515303
-0.512229
-0.509167
-0.506106
-0.50307
-0.500049
-0.497058
-0.494088
-0.491146
-0.488238
-0.485364
-0.482519
-0.479708
-0.476937
-0.4742
-0.471495
-0.468833
-0.466201
-0.463606
-0.461042
-0.458515
-0.456003
-0.453553
-0.451099
-0.448724
-0.446281
-0.444037
-0.441564
0.126377
0.105857
0.0850688
0.0639822
0.0424
0.0201547
-0.00294722
-0.0269828
-0.0520842
-0.078279
-0.1055
-0.133423
-0.162273
-0.193914
-0.222076
-0.249467
-0.276662
-0.303659
-0.329845
-0.355022
-0.378847
-0.401038
-0.421479
-0.440121
-0.456949
-0.471914
-0.485024
-0.496363
-0.506094
-0.514299
-0.521073
-0.526525
-0.530811
-0.534034
-0.536299
-0.537738
-0.538502
-0.538682
-0.538338
-0.537537
-0.536365
-0.534902
-0.533177
-0.531208
-0.529047
-0.526746
-0.524309
-0.521762
-0.519136
-0.516435
-0.51368
-0.510885
-0.50806
-0.505217
-0.502373
-0.499519
-0.496676
-0.493843
-0.491025
-0.488224
-0.485441
-0.482684
-0.479957
-0.477253
-0.474575
-0.471933
-0.469323
-0.466739
-0.464193
-0.461677
-0.459196
-0.456741
-0.454323
-0.45192
-0.449572
-0.447226
-0.444956
-0.442629
-0.440473
-0.438127
0.126772
0.10715
0.0873087
0.0672232
0.0467074
0.0256018
0.0037224
-0.0189984
-0.0426771
-0.0673297
-0.0929424
-0.119396
-0.146523
-0.173811
-0.203214
-0.231838
-0.257508
-0.283079
-0.308033
-0.332387
-0.355679
-0.377574
-0.397976
-0.416791
-0.433953
-0.449388
-0.463086
-0.475098
-0.485564
-0.494544
-0.502118
-0.508409
-0.513554
-0.517617
-0.520684
-0.522881
-0.524356
-0.525204
-0.525486
-0.525271
-0.524646
-0.523696
-0.522453
-0.520928
-0.519182
-0.51727
-0.515199
-0.512994
-0.510688
-0.508286
-0.505812
-0.503281
-0.500702
-0.498093
-0.495467
-0.492821
-0.490172
-0.487526
-0.484883
-0.48225
-0.479626
-0.47702
-0.474438
-0.471874
-0.469329
-0.466815
-0.464329
-0.461865
-0.459432
-0.45703
-0.454657
-0.452309
-0.449996
-0.447698
-0.44545
-0.443207
-0.441037
-0.43882
-0.436747
-0.434521
0.127002
0.108205
0.0892308
0.0700588
0.0505128
0.0304406
0.00966757
-0.0118683
-0.0342787
-0.0575836
-0.0817803
-0.10676
-0.13243
-0.158584
-0.184695
-0.210814
-0.238849
-0.265147
-0.288823
-0.31212
-0.334587
-0.355884
-0.37601
-0.394809
-0.412143
-0.427905
-0.442058
-0.454613
-0.465694
-0.475343
-0.483619
-0.490618
-0.496506
-0.501336
-0.505157
-0.508072
-0.510225
-0.511712
-0.512597
-0.512952
-0.512865
-0.512429
-0.511664
-0.510577
-0.509238
-0.507713
-0.506005
-0.50414
-0.502154
-0.500052
-0.497859
-0.495593
-0.493263
-0.490888
-0.488482
-0.486045
-0.483591
-0.481132
-0.478665
-0.476199
-0.473735
-0.47128
-0.468843
-0.466417
-0.464004
-0.461616
-0.459253
-0.456906
-0.454586
-0.452294
-0.450029
-0.447784
-0.445573
-0.443376
-0.441223
-0.439081
-0.437005
-0.434893
-0.432899
-0.430785
0.127092
0.109054
0.0908767
0.0725412
0.0538806
0.0347492
0.0149808
-0.00548384
-0.0267514
-0.048841
-0.0717513
-0.0953909
-0.119718
-0.144516
-0.169619
-0.194825
-0.219431
-0.243685
-0.269201
-0.293271
-0.315966
-0.336721
-0.356273
-0.374678
-0.391876
-0.407727
-0.422155
-0.435088
-0.446635
-0.456828
-0.465709
-0.473321
-0.479827
-0.485306
-0.489807
-0.493391
-0.496176
-0.498256
-0.499702
-0.500589
-0.501015
-0.501093
-0.500821
-0.500176
-0.499248
-0.49811
-0.496762
-0.495234
-0.493564
-0.491761
-0.48985
-0.487849
-0.485767
-0.483627
-0.481442
-0.479214
-0.476957
-0.474685
-0.472394
-0.470096
-0.467791
-0.465487
-0.463195
-0.460907
-0.458625
-0.456363
-0.454122
-0.451891
-0.449683
-0.4475
-0.445338
-0.443195
-0.441084
-0.438985
-0.436925
-0.434878
-0.432891
-0.430879
-0.428961
-0.42695
0.127061
0.109726
0.0922819
0.0747148
0.0568651
0.0385931
0.0197403
0.000249725
-0.0199799
-0.0409682
-0.0627187
-0.0851542
-0.108253
-0.131834
-0.155768
-0.179818
-0.203853
-0.227776
-0.250916
-0.272972
-0.294375
-0.315842
-0.336226
-0.355091
-0.372382
-0.388365
-0.403009
-0.416364
-0.428247
-0.43886
-0.448245
-0.456477
-0.463565
-0.469632
-0.474753
-0.478981
-0.482413
-0.485104
-0.487087
-0.48841
-0.489168
-0.489645
-0.489855
-0.489665
-0.489176
-0.488451
-0.487479
-0.486298
-0.484946
-0.48344
-0.481808
-0.48007
-0.478236
-0.476331
-0.474368
-0.472349
-0.470289
-0.468204
-0.46609
-0.463961
-0.461815
-0.459662
-0.457515
-0.455365
-0.453214
-0.451077
-0.448957
-0.446842
-0.444743
-0.442668
-0.44061
-0.438566
-0.436551
-0.434549
-0.432578
-0.430624
-0.428723
-0.426805
-0.424961
-0.423046
0.126929
0.110243
0.0934767
0.0766174
0.0595127
0.0420282
0.024013
0.00541168
-0.0138721
-0.0338596
-0.0545581
-0.0759001
-0.0978747
-0.120329
-0.143143
-0.16618
-0.189266
-0.212145
-0.234603
-0.256633
-0.278078
-0.298682
-0.318088
-0.336326
-0.353548
-0.36965
-0.384508
-0.398042
-0.410404
-0.421523
-0.431399
-0.440081
-0.447696
-0.454296
-0.459931
-0.46468
-0.468658
-0.471903
-0.474466
-0.476446
-0.477944
-0.47886
-0.479204
-0.479219
-0.479061
-0.478716
-0.478121
-0.47732
-0.476307
-0.475107
-0.473756
-0.472278
-0.47069
-0.469018
-0.467276
-0.465466
-0.463603
-0.461706
-0.459769
-0.457807
-0.455821
-0.45382
-0.451817
-0.449805
-0.447785
-0.445774
-0.443773
-0.441773
-0.439785
-0.437815
-0.435859
-0.433914
-0.431994
-0.430085
-0.428203
-0.426339
-0.42452
-0.422692
-0.42092
-0.419093
0.126708
0.110625
0.0944871
0.0782815
0.0618631
0.0451026
0.0278558
0.010069
-0.00834985
-0.0274236
-0.0471616
-0.0675047
-0.0884493
-0.109867
-0.131652
-0.153691
-0.175799
-0.197838
-0.21963
-0.241013
-0.26176
-0.281783
-0.300944
-0.319149
-0.336345
-0.352424
-0.367322
-0.381021
-0.393581
-0.404957
-0.415158
-0.424231
-0.432277
-0.439332
-0.445439
-0.45067
-0.455129
-0.458876
-0.461947
-0.464393
-0.46626
-0.467596
-0.468528
-0.469145
-0.469354
-0.469183
-0.468711
-0.468275
-0.467609
-0.466751
-0.465698
-0.464486
-0.463145
-0.461704
-0.460181
-0.45858
-0.456913
-0.455203
-0.453442
-0.451649
-0.449822
-0.447973
-0.446114
-0.444239
-0.44235
-0.440464
-0.438583
-0.436697
-0.434818
-0.432954
-0.431099
-0.429252
-0.427426
-0.425609
-0.423814
-0.422037
-0.420299
-0.418557
-0.416855
-0.415111
0.126412
0.110891
0.0953355
0.0797352
0.0639507
0.0478575
0.0313179
0.0142793
-0.00334598
-0.0215821
-0.0404399
-0.059868
-0.0798671
-0.100329
-0.121157
-0.142261
-0.163478
-0.184696
-0.205702
-0.226366
-0.246533
-0.266117
-0.284946
-0.302891
-0.319898
-0.335892
-0.35081
-0.364612
-0.377331
-0.388946
-0.399452
-0.408878
-0.417307
-0.424773
-0.431314
-0.43699
-0.441896
-0.446087
-0.4496
-0.452474
-0.454773
-0.456583
-0.457961
-0.458925
-0.459509
-0.459808
-0.459827
-0.459356
-0.45886
-0.458341
-0.457616
-0.456691
-0.455607
-0.454401
-0.453096
-0.451702
-0.450231
-0.448706
-0.447122
-0.445496
-0.443828
-0.442129
-0.440414
-0.438677
-0.436919
-0.435157
-0.433396
-0.431624
-0.429854
-0.428095
-0.42634
-0.424591
-0.422857
-0.421131
-0.419421
-0.41773
-0.416071
-0.414411
-0.412779
-0.411114
0.126052
0.111055
0.0960412
0.0810026
0.0658052
0.0503287
0.0344415
0.0180923
0.00119724
-0.0162687
-0.0343177
-0.0529047
-0.0720335
-0.091612
-0.111553
-0.131784
-0.152155
-0.172567
-0.192827
-0.212832
-0.232437
-0.251523
-0.269933
-0.287559
-0.304351
-0.320228
-0.335115
-0.348962
-0.361796
-0.373596
-0.384347
-0.394065
-0.402822
-0.410649
-0.417575
-0.423651
-0.428963
-0.43356
-0.437478
-0.440766
-0.443487
-0.445712
-0.447469
-0.44879
-0.449741
-0.450378
-0.450696
-0.45075
-0.450549
-0.449968
-0.449513
-0.448884
-0.448074
-0.447112
-0.44603
-0.444842
-0.443566
-0.442226
-0.440816
-0.439357
-0.437847
-0.436299
-0.434727
-0.433126
-0.431499
-0.429862
-0.428219
-0.426561
-0.4249
-0.423245
-0.42159
-0.419936
-0.418295
-0.416658
-0.415033
-0.413426
-0.411845
-0.410265
-0.408702
-0.407112
0.125638
0.111129
0.096621
0.082105
0.0674525
0.0525473
0.0372634
0.021551
0.00532968
-0.0114262
-0.0287297
-0.0465414
-0.0648673
-0.083628
-0.102745
-0.122158
-0.141732
-0.161381
-0.180932
-0.200289
-0.219312
-0.237886
-0.255871
-0.273167
-0.289715
-0.30543
-0.320237
-0.33408
-0.346979
-0.358907
-0.369846
-0.379801
-0.388835
-0.396972
-0.404235
-0.410667
-0.416346
-0.421317
-0.425613
-0.429281
-0.432381
-0.434977
-0.437097
-0.438776
-0.440071
-0.441029
-0.441669
-0.442023
-0.442126
-0.442031
-0.441574
-0.441108
-0.440554
-0.439842
-0.438989
-0.43801
-0.436928
-0.43577
-0.434535
-0.43324
-0.431887
-0.430489
-0.429059
-0.427594
-0.426096
-0.424583
-0.423058
-0.421514
-0.41996
-0.418409
-0.416854
-0.415296
-0.413745
-0.412197
-0.410656
-0.409131
-0.407628
-0.406125
-0.404631
-0.403113
0.125176
0.111125
0.0970896
0.0830606
0.0689149
0.0545401
0.0398156
0.0246928
0.00909469
-0.00700487
-0.0236196
-0.0407146
-0.058298
-0.0763006
-0.0946517
-0.113301
-0.132125
-0.15105
-0.16992
-0.188643
-0.207092
-0.225161
-0.242717
-0.259663
-0.275936
-0.291453
-0.306141
-0.319938
-0.332856
-0.344865
-0.355943
-0.366087
-0.37535
-0.383752
-0.391308
-0.398054
-0.404063
-0.409374
-0.414016
-0.418033
-0.421478
-0.424417
-0.426882
-0.428898
-0.430517
-0.431789
-0.432731
-0.433371
-0.43376
-0.433907
-0.433821
-0.433529
-0.433093
-0.432602
-0.431979
-0.431212
-0.430324
-0.429348
-0.428284
-0.427152
-0.425955
-0.424705
-0.423417
-0.422087
-0.420718
-0.419327
-0.41792
-0.416488
-0.415042
-0.413594
-0.412137
-0.410673
-0.409214
-0.407754
-0.406296
-0.404852
-0.403425
-0.401998
-0.400573
-0.399124
0.124675
0.111054
0.0974596
0.0838855
0.0702123
0.0563311
0.0421262
0.0275505
0.0125302
-0.00296133
-0.0189381
-0.0353693
-0.0522646
-0.0695631
-0.0872013
-0.105136
-0.123256
-0.141496
-0.159715
-0.177827
-0.195718
-0.213287
-0.230408
-0.246988
-0.262966
-0.278261
-0.292797
-0.306513
-0.319411
-0.33146
-0.342633
-0.352922
-0.362371
-0.370994
-0.378802
-0.385824
-0.392126
-0.397742
-0.402698
-0.407034
-0.4108
-0.414059
-0.416841
-0.419171
-0.421097
-0.422668
-0.423896
-0.424816
-0.425473
-0.425876
-0.426048
-0.426018
-0.425784
-0.42543
-0.425008
-0.424451
-0.42376
-0.422966
-0.422072
-0.421101
-0.420057
-0.418954
-0.417806
-0.416609
-0.415367
-0.414099
-0.412808
-0.411487
-0.410148
-0.408802
-0.407443
-0.406074
-0.404704
-0.403331
-0.401955
-0.400592
-0.39924
-0.397888
-0.396531
-0.395151
0.12414
0.110922
0.0977423
0.0845939
0.0713618
0.0579408
0.0442198
0.0301529
0.0156693
0.000742419
-0.0146423
-0.0304573
-0.0467134
-0.063357
-0.0803306
-0.0975972
-0.115055
-0.132648
-0.150247
-0.167773
-0.185121
-0.202198
-0.218886
-0.235094
-0.250763
-0.265814
-0.280174
-0.293777
-0.306622
-0.318674
-0.329905
-0.340299
-0.349894
-0.358699
-0.366721
-0.373982
-0.380542
-0.386431
-0.391671
-0.396298
-0.40036
-0.403916
-0.406992
-0.409613
-0.411826
-0.413679
-0.415181
-0.416368
-0.417281
-0.417933
-0.418347