0.001         0.870745     
0.002         0.426883     
0.003         0.32452      
0.004         0.270729     
0.005         0.236455     
0.006         0.212507     
0.007         0.194477     
0.008         0.180205     
0.009         0.168778     
0.01          0.159088     
0.011         0.150885     
0.012         0.143752     
0.013         0.137528     
0.014         0.132006     
0.015         0.127066     
0.016         0.122601     
0.017         0.118548     
0.018         0.114845     
0.019         0.111445     
0.02          0.108186     
0.021         0.105239     
0.022         0.102514     
0.023         0.0999622    
0.024         0.0975678    
0.025         0.0953167    
0.026         0.093193     
0.027         0.0911843    
0.028         0.0892794    
0.029         0.0874727    
0.03          0.0857449    
0.031         0.0841053    
0.032         0.0825388    
0.033         0.0809795    
0.034         0.0782372    
0.035         0.0793722    
0.036         0.0767143    
0.037         0.0746737    
0.038         0.0749605    
0.039         0.0731179    
0.04          0.071143     
0.041         0.0716575    
0.042         0.0698056    
0.043         0.0680818    
0.044         0.0684292    
0.045         0.0668322    
0.046         0.0652245    
0.047         0.0656001    
0.048         0.0640968    
0.049         0.0626557    
0.05          0.0629373    
0.051         0.0615978    
0.052         0.0602601    
0.053         0.0605298    
0.054         0.059201     
0.055         0.0579336    
0.056         0.0582474    
0.057         0.0570612    
0.058         0.055883     
0.059         0.0561633    
0.06          0.0550622    
0.061         0.0539613    
0.062         0.0542177    
0.063         0.0531873    
0.064         0.0521564    
0.065         0.0523889    
0.066         0.0514233    
0.067         0.0504545    
0.068         0.0506665    
0.069         0.0497583    
0.07          0.0488452    
0.071         0.049013     
0.072         0.0481792    
0.073         0.0473036    
0.074         0.0474994    
0.075         0.0466806    
0.076         0.0458595    
0.077         0.0460242    
0.078         0.045259     
0.079         0.0444767    
0.08          0.0446329    
0.081         0.0439017    
0.082         0.0431586    
0.083         0.0432998    
0.084         0.0426053    
0.085         0.0418967    
0.086         0.0420269    
0.087         0.041364     
0.088         0.040688     
0.089         0.0408068    
0.09          0.04008      
0.091         0.0393751    
0.092         0.0396058    
0.093         0.0389452    
0.094         0.0382747    
0.095         0.0384793    
0.096         0.037855     
0.097         0.0372072    
0.098         0.0374062    
0.099         0.0368021    
0.1           0.0361797    
0.101         0.0363663    
0.102         0.0357864    
0.103         0.0351861    
0.104         0.0353638    
0.105         0.0348044    
0.106         0.0342255    
0.107         0.0343939    
0.108         0.0338545    
0.109         0.0332954    
0.11          0.0334554    
0.111         0.0329345    
0.112         0.0323941    
0.113         0.0325461    
0.114         0.0320426    
0.115         0.0315198    
0.116         0.0316348    
0.117         0.0311718    
0.118         0.0306567    
0.119         0.0308119    
0.12          0.0303282    
0.121         0.0298387    
0.122         0.0299696    
0.123         0.0295123    
0.124         0.0290355    
0.125         0.0291648    
0.126         0.0287176    
0.127         0.0282564    
0.128         0.0283775    
0.129         0.0279445    
0.13          0.0274965    
0.131         0.0276124    
0.132         0.0271912    
0.133         0.0267562    
0.134         0.0268661    
0.135         0.026457     
0.136         0.0260341    
0.137         0.0261388    
0.138         0.0257408    
0.139         0.0253294    
0.14          0.0254293    
0.141         0.0250417    
0.142         0.0246414    
0.143         0.0247365    
0.144         0.024359     
0.145         0.0239691    
0.146         0.0240599    
0.147         0.023692     
0.148         0.023312     
0.149         0.0233986    
0.15          0.0230393    
0.151         0.0226697    
0.152         0.0227515    
0.153         0.0224014    
0.154         0.0220409    
0.155         0.0221191    
0.156         0.0216785    
0.157         0.0212369    
0.158         0.0214892    
0.159         0.0210833    
0.16          0.020655     
0.161         0.0208678    
0.162         0.020495     
0.163         0.0200686    
0.164         0.0202876    
0.165         0.0199141    
0.166         0.0194993    
0.167         0.0197077    
0.168         0.0193456    
0.169         0.0189382    
0.17          0.0191428    
0.171         0.018787     
0.172         0.0183885    
0.173         0.0185867    
0.174         0.0182389    
0.175         0.0178483    
0.176         0.0180414    
0.177         0.0176999    
0.178         0.0173178    
0.179         0.0175061    
0.18          0.0171713    
0.181         0.0167966    
0.182         0.0169802    
0.183         0.0166518    
0.184         0.0162846    
0.185         0.0164632    
0.186         0.0161407    
0.187         0.0157811    
0.188         0.0159557    
0.189         0.015638     
0.19          0.0152861    
0.191         0.0154566    
0.192         0.0151446    
0.193         0.0147996    
0.194         0.0149654    
0.195         0.0146587    
0.196         0.0143206    
0.197         0.0144829    
0.198         0.0141809    
0.199         0.0138247    
0.2           0.0140387    
0.201         0.0137004    
0.202         0.0133843    
0.203         0.0135265    
0.204         0.0132436    
0.205         0.0129205    
0.206         0.0130823    
0.207         0.012787     
0.208         0.012474     
0.209         0.0126241    
0.21          0.0123399    
0.211         0.0120307    
0.212         0.0121802    
0.213         0.0118988    
0.214         0.0115956    
0.215         0.0117405    
0.216         0.0114646    
0.217         0.0111664    
0.218         0.0113082    
0.219         0.0110366    
0.22          0.0107436    
0.221         0.0108821    
0.222         0.010615     
0.223         0.0103266    
0.224         0.0104623    
0.225         0.0101995    
0.226         0.00991595   
0.227         0.0100484    
0.228         0.00978986   
0.229         0.00951097   
0.23          0.00964044   
0.231         0.00938603   
0.232         0.00911168   
0.233         0.00923823   
0.234         0.00898778   
0.235         0.00871788   
0.236         0.00884161   
0.237         0.00859503   
0.238         0.0083294    
0.239         0.00845046   
0.24          0.00820761   
0.241         0.00794618   
0.242         0.00806453   
0.243         0.00782542   
0.244         0.00756805   
0.245         0.00768383   
0.246         0.00744827   
0.247         0.0071949    
0.248         0.0073081    
0.249         0.00707609   
0.25          0.0068266    
0.251         0.00693734   
0.252         0.00670875   
0.253         0.00646304   
0.254         0.00657138   
0.255         0.00634616   
0.256         0.0061041    
0.257         0.00621017   
0.258         0.00598818   
0.259         0.0057497    
0.26          0.00585353   
0.261         0.00563467   
0.262         0.00539975   
0.263         0.0055013    
0.264         0.00528564   
0.265         0.00505409   
0.266         0.00515356   
0.267         0.00494084   
0.268         0.00471274   
0.269         0.00480997   
0.27          0.00460036   
0.271         0.00437543   
0.272         0.00447078   
0.273         0.00426363   
0.274         0.00404257   
0.275         0.00413499   
0.276         0.00393167   
0.277         0.00371292   
0.278         0.00380462   
0.279         0.00360317   
0.28          0.00338773   
0.281         0.00347709   
0.282         0.00327869   
0.283         0.00306615   
0.284         0.0030025    
0.285         0.00288931   
0.286         0.00278825   
0.287         0.0026839    
0.288         0.00258103   
0.289         0.00247812   
0.29          0.00237577   
0.291         0.00227364   
0.292         0.00217185   
0.293         0.0020705    
0.294         0.00196945   
0.295         0.00186874   
0.296         0.00176837   
0.297         0.00166839   
0.298         0.00156875   
0.299         0.00146944   
0.3           0.00137047   
0.301         0.00127185   
0.302         0.00117357   
0.303         0.00107563   
0.304         0.000978043  
0.305         0.000880619  
0.306         0.000783862  
0.307         0.000687207  
0.308         0.00059099   
0.309         0.000495085  
0.31          0.000399493  
0.311         0.000304261  
0.312         0.000209302  
0.313         0.000114646  
0.314         2.03927e-05  
0.315         -7.3568e-05  
0.316         -0.000167197 
0.317         -0.000260512 
0.318         -0.000353541 
0.319         -0.000446178 
0.32          -0.000538589 
0.321         -0.00063062  
0.322         -0.000722355 
0.323         -0.000813767 
0.324         -0.000904904 
0.325         -0.000995713 
0.326         -0.00108621  
0.327         -0.00117638  
0.328         -0.0012663   
0.329         -0.00135589  
0.33          -0.00144518  
0.331         -0.00153412  
0.332         -0.00162287  
0.333         -0.00171126  
0.334         -0.00179934  
0.335         -0.00188716  
0.336         -0.0019747   
0.337         -0.00206192  
0.338         -0.00214886  
0.339         -0.00223549  
0.34          -0.00232187  
0.341         -0.00240791  
0.342         -0.00249374  
0.343         -0.00257926  
0.344         -0.00266448  
0.345         -0.00274941  
0.346         -0.00283416  
0.347         -0.00291852  
0.348         -0.00300265  
0.349         -0.00308648  
0.35          -0.00317007  
0.351         -0.00325338  
0.352         -0.00333645  
0.353         -0.0034192   
0.354         -0.00350173  
0.355         -0.00358394  
0.356         -0.0036659   
0.357         -0.00374763  
0.358         -0.00382915  
0.359         -0.00391033  
0.36          -0.00399119  
0.361         -0.00407187  
0.362         -0.00415226  
0.363         -0.00423244  
0.364         -0.00431234  
0.365         -0.00439196  
0.366         -0.00447142  
0.367         -0.00455057  
0.368         -0.00462947  
0.369         -0.0047081   
0.37          -0.00478646  
0.371         -0.00486465  
0.372         -0.00494258  
0.373         -0.00502025  
0.374         -0.00509764  
0.375         -0.00517487  
0.376         -0.00525178  
0.377         -0.00532123  
0.378         -0.00539802  
0.379         -0.00547449  
0.38          -0.00555069  
0.381         -0.00562662  
0.382         -0.00570234  
0.383         -0.00577778  
0.384         -0.00585301  
0.385         -0.00592797  
0.386         -0.00600271  
0.387         -0.0060772   
0.388         -0.00615147  
0.389         -0.00622552  
0.39          -0.00629933  
0.391         -0.00637288  
0.392         -0.00644622  
0.393         -0.00651934  
0.394         -0.00659225  
0.395         -0.0066649   
0.396         -0.00673736  
0.397         -0.00680957  
0.398         -0.00688156  
0.399         -0.00695337  
0.4           -0.00702493  
0.401         -0.00709628  
0.402         -0.00716741  
0.403         -0.00723832  
0.404         -0.00730902  
0.405         -0.0073795   
0.406         -0.00744978  
0.407         -0.00751983  
0.408         -0.0075897   
0.409         -0.00765932  
0.41          -0.00772878  
0.411         -0.00779797  
0.412         -0.00786704  
0.413         -0.00793583  
0.414         -0.00800446  
0.415         -0.00807284  
0.416         -0.00814108  
0.417         -0.00820906  
0.418         -0.00827687  
0.419         -0.00834446  
0.42          -0.00841188  
0.421         -0.00847907  
0.422         -0.00854609  
0.423         -0.00861289  
0.424         -0.00867952  
0.425         -0.00874594  
0.426         -0.00881215  
0.427         -0.00887819  
0.428         -0.00894403  
0.429         -0.00900967  
0.43          -0.00907513  
0.431         -0.00914037  
0.432         -0.00920548  
0.433         -0.00927036  
0.434         -0.00933508  
0.435         -0.00939958  
0.436         -0.00946392  
0.437         -0.00952805  
0.438         -0.00959203  
0.439         -0.00965578  
0.44          -0.0097194   
0.441         -0.00978279  
0.442         -0.00984604  
0.443         -0.00990906  
0.444         -0.00997195  
0.445         -0.0100346   
0.446         -0.0100971   
0.447         -0.0101594   
0.448         -0.0102216   
0.449         -0.0102836   
0.45          -0.0103454   
0.451         -0.010407    
0.452         -0.0104685   
0.453         -0.0105298   
0.454         -0.0105909   
0.455         -0.0106518   
0.456         -0.0107126   
0.457         -0.0107732   
0.458         -0.0108336   
0.459         -0.0108938   
0.46          -0.0109539   
0.461         -0.0110138   
0.462         -0.0110736   
0.463         -0.0111331   
0.464         -0.0111926   
0.465         -0.0112518   
0.466         -0.0113109   
0.467         -0.0113698   
0.468         -0.0114286   
0.469         -0.0114872   
0.47          -0.0115456   
0.471         -0.0116039   
0.472         -0.0116619   
0.473         -0.0117199   
0.474         -0.0117777   
0.475         -0.0118353   
0.476         -0.0118928   
0.477         -0.0119501   
0.478         -0.0120072   
0.479         -0.0120642   
0.48          -0.0121211   
0.481         -0.0121777   
0.482         -0.0122343   
0.483         -0.0122906   
0.484         -0.0123468   
0.485         -0.0124029   
0.486         -0.0124588   
0.487         -0.0125146   
0.488         -0.0125702   
0.489         -0.0126256   
0.49          -0.0126809   
0.491         -0.0127361   
0.492         -0.0127911   
0.493         -0.0128459   
0.494         -0.0129006   
0.495         -0.0129552   
0.496         -0.0130096   
0.497         -0.0130639   
0.498         -0.013118    
0.499         -0.0131719   
0.5           -0.0132258   
0.501         -0.0132794   
0.502         -0.013333    
0.503         -0.0133864   
0.504         -0.0134396   
0.505         -0.0134927   
0.506         -0.0135457   
0.507         -0.0135985   
0.508         -0.0136512   
0.509         -0.0137037   
0.51          -0.0137561   
0.511         -0.0138083   
0.512         -0.0138605   
0.513         -0.0139124   
0.514         -0.0139643   
0.515         -0.014016    
0.516         -0.0140675   
0.517         -0.014119    
0.518         -0.0141703   
0.519         -0.0142214   
0.52          -0.0142724   
0.521         -0.0143233   
0.522         -0.0143741   
0.523         -0.0144247   
0.524         -0.0144751   
0.525         -0.0145255   
0.526         -0.0145757   
0.527         -0.0146258   
0.528         -0.0146757   
0.529         -0.0147255   
0.53          -0.0147752   
0.531         -0.0148248   
0.532         -0.0148742   
0.533         -0.0149235   
0.534         -0.0149727   
0.535         -0.0150217   
0.536         -0.0150706   
0.537         -0.0151194   
0.538         -0.0151681   
0.539         -0.0152166   
0.54          -0.015265    
0.541         -0.0153133   
0.542         -0.0153614   
0.543         -0.0154094   
0.544         -0.0154573   
0.545         -0.0155051   
0.546         -0.0155527   
0.547         -0.0156003   
0.548         -0.0156477   
0.549         -0.0156949   
0.55          -0.0157421   
0.551         -0.0157891   
0.552         -0.015836    
0.553         -0.0158828   
0.554         -0.0159295   
0.555         -0.015976    
0.556         -0.0160225   
0.557         -0.0160688   
0.558         -0.0161149   
0.559         -0.016161    
0.56          -0.016207    
0.561         -0.0162528   
0.562         -0.0162985   
0.563         -0.0163441   
0.564         -0.0163896   
0.565         -0.016435    
0.566         -0.0164802   
0.567         -0.0165253   
0.568         -0.0165704   
0.569         -0.0166153   
0.57          -0.01666     
0.571         -0.0167047   
0.572         -0.0167819   
0.573         -0.0168237   
0.574         -0.0168661   
0.575         -0.0169084   
0.576         -0.0169508   
0.577         -0.016993    
0.578         -0.0170352   
0.579         -0.0170773   
0.58          -0.0171194   
0.581         -0.0171614   
0.582         -0.0172034   
0.583         -0.0172452   
0.584         -0.017287    
0.585         -0.0173286   
0.586         -0.0173702   
0.587         -0.0174117   
0.588         -0.0174532   
0.589         -0.0174945   
0.59          -0.0175357   
0.591         -0.0175769   
0.592         -0.017618    
0.593         -0.017659    
0.594         -0.0176999   
0.595         -0.0177407   
0.596         -0.0177814   
0.597         -0.017822    
0.598         -0.0178625   
0.599         -0.017903    
0.6           -0.0179433   
0.601         -0.0179836   
0.602         -0.0180238   
0.603         -0.0180639   
0.604         -0.0181039   
0.605         -0.0181438   
0.606         -0.0181836   
0.607         -0.0182233   
0.608         -0.018263    
0.609         -0.0183026   
0.61          -0.018342    
0.611         -0.0183814   
0.612         -0.0184207   
0.613         -0.0184599   
0.614         -0.018499    
0.615         -0.018538    
0.616         -0.018577    
0.617         -0.0186158   
0.618         -0.0186546   
0.619         -0.0186932   
0.62          -0.0187318   
0.621         -0.0187703   
0.622         -0.0188087   
0.623         -0.018847    
0.624         -0.0188853   
0.625         -0.0189234   
0.626         -0.0189615   
0.627         -0.0189994   
0.628         -0.0190373   
0.629         -0.0190751   
0.63          -0.0191128   
0.631         -0.0191504   
0.632         -0.019188    
0.633         -0.0192254   
0.634         -0.0192628   
0.635         -0.0193      
0.636         -0.0193373   
0.637         -0.0193744   
0.638         -0.0194114   
0.639         -0.0194483   
0.64          -0.0194852   
0.641         -0.0195219   
0.642         -0.0195586   
0.643         -0.0195952   
0.644         -0.0196318   
0.645         -0.0196682   
0.646         -0.0197045   
0.647         -0.0197408   
0.648         -0.019777    
0.649         -0.0198131   
0.65          -0.0198491   
0.651         -0.019885    
0.652         -0.0199209   
0.653         -0.0199566   
0.654         -0.0199923   
0.655         -0.0200279   
0.656         -0.0200634   
0.657         -0.0200989   
0.658         -0.0201342   
0.659         -0.0201695   
0.66          -0.0202047   
0.661         -0.0202398   
0.662         -0.0202749   
0.663         -0.0203098   
0.664         -0.0203447   
0.665         -0.0203795   
0.666         -0.0204142   
0.667         -0.0204488   
0.668         -0.0204834   
0.669         -0.0205179   
0.67          -0.0205522   
0.671         -0.0205866   
0.672         -0.0206208   
0.673         -0.020655    
0.674         -0.020689    
0.675         -0.020723    
0.676         -0.020757    
0.677         -0.0207908   
0.678         -0.0208246   
0.679         -0.0208583   
0.68          -0.0208919   
0.681         -0.0209254   
0.682         -0.0209589   
0.683         -0.0209922   
0.684         -0.0210255   
0.685         -0.0210588   
0.686         -0.0210919   
0.687         -0.021125    
0.688         -0.021158    
0.689         -0.0211909   
0.69          -0.0212238   
0.691         -0.0212565   
0.692         -0.0212892   
0.693         -0.0213218   
0.694         -0.0213544   
0.695         -0.0213869   
0.696         -0.0214193   
0.697         -0.0214516   
0.698         -0.0214838   
0.699         -0.021516    
0.7           -0.0215481   
0.701         -0.0215801   
0.702         -0.021612    
0.703         -0.0216439   
0.704         -0.0216757   
0.705         -0.0217074   
0.706         -0.0217392   
0.707         -0.0217708   
0.708         -0.0218022   
0.709         -0.0218337   
0.71          -0.021865    
0.711         -0.0218963   
0.712         -0.0219276   
0.713         -0.0219587   
0.714         -0.0219898   
0.715         -0.0220208   
0.716         -0.0220517   
0.717         -0.0220826   
0.718         -0.0221134   
0.719         -0.0221442   
0.72          -0.0221748   
0.721         -0.0222054   
0.722         -0.0222359   
0.723         -0.0222664   
0.724         -0.0222968   
0.725         -0.0223271   
0.726         -0.0223573   
0.727         -0.0223875   
0.728         -0.0224176   
0.729         -0.0224476   
0.73          -0.0224776   
0.731         -0.0225075   
0.732         -0.0225374   
0.733         -0.0225671   
0.734         -0.0225968   
0.735         -0.0226264   
0.736         -0.022656    
0.737         -0.0226855   
0.738         -0.0227149   
0.739         -0.0227443   
0.74          -0.0227736   
0.741         -0.0228028   
0.742         -0.0228319   
0.743         -0.0228611   
0.744         -0.0228901   
0.745         -0.022919    
0.746         -0.0229479   
0.747         -0.0229768   
0.748         -0.0230055   
0.749         -0.0230342   
0.75          -0.0230629   
0.751         -0.0230914   
0.752         -0.0231199   
0.753         -0.0231484   
0.754         -0.0231767   
0.755         -0.023205    
0.756         -0.0232333   
0.757         -0.0232615   
0.758         -0.0232896   
0.759         -0.0233176   
0.76          -0.0233456   
0.761         -0.0233736   
0.762         -0.0234014   
0.763         -0.0234292   
0.764         -0.0234569   
0.765         -0.0234846   
0.766         -0.0235122   
0.767         -0.0235398   
0.768         -0.0235673   
0.769         -0.0235947   
0.77          -0.0236221   
0.771         -0.0236494   
0.772         -0.0236766   
0.773         -0.0237038   
0.774         -0.0237309   
0.775         -0.0237579   
0.776         -0.0237849   
0.777         -0.0238119   
0.778         -0.0238389   
0.779         -0.0238656   
0.78          -0.0238923   
0.781         -0.023919    
0.782         -0.0239457   
0.783         -0.0239721   
0.784         -0.0239988   
0.785         -0.0240251   
0.786         -0.0240515   
0.787         -0.024078    
0.788         -0.0241041   
0.789         -0.0241304   
0.79          -0.0241564   
0.791         -0.0241827   
0.792         -0.0242087   
0.793         -0.0242347   
0.794         -0.0242606   
0.795         -0.0242864   
0.796         -0.0243122   
0.797         -0.024338    
0.798         -0.0243637   
0.799         -0.0243895   
0.8           -0.0244148   
0.801         -0.0244404   
0.802         -0.0244658   
0.803         -0.0244912   
0.804         -0.0245168   
0.805         -0.024542    
0.806         -0.0245673   
0.807         -0.0245924   
0.808         -0.0246176   
0.809         -0.0246426   
0.81          -0.0246674   
0.811         -0.0246926   
0.812         -0.0247174   
0.813         -0.0247423   
0.814         -0.024767    
0.815         -0.0247918   
0.816         -0.0248162   
0.817         -0.0248026   
0.818         -0.0248292   
0.819         -0.0248541   
0.82          -0.024879    
0.821         -0.0249038   
0.822         -0.0249285   
0.823         -0.0249532   
0.824         -0.0249778   
0.825         -0.0250023   
0.826         -0.0250267   
0.827         -0.025051    
0.828         -0.0250753   
0.829         -0.0250996   
0.83          -0.0251238   
0.831         -0.0251479   
0.832         -0.0251719   
0.833         -0.0251959   
0.834         -0.0252199   
0.835         -0.0252437   
0.836         -0.0252676   
0.837         -0.0252913   
0.838         -0.025315    
0.839         -0.0253387   
0.84          -0.0253623   
0.841         -0.0253858   
0.842         -0.0254093   
0.843         -0.0254327   
0.844         -0.0254561   
0.845         -0.0254794   
0.846         -0.0255027   
0.847         -0.0255259   
0.848         -0.025549    
0.849         -0.0255721   
0.85          -0.0255952   
0.851         -0.0256181   
0.852         -0.0256411   
0.853         -0.025664    
0.854         -0.0256868   
0.855         -0.0257096   
0.856         -0.0257323   
0.857         -0.025755    
0.858         -0.0257776   
0.859         -0.0258003   
0.86          -0.0258227   
0.861         -0.0258452   
0.862         -0.0258676   
0.863         -0.02589     
0.864         -0.0259123   
0.865         -0.0259346   
0.866         -0.0259568   
0.867         -0.0259789   
0.868         -0.0260011   
0.869         -0.0260231   
0.87          -0.0260451   
0.871         -0.0260671   
0.872         -0.026089    
0.873         -0.0261109   
0.874         -0.0261327   
0.875         -0.0261545   
0.876         -0.0261762   
0.877         -0.0261979   
0.878         -0.0262195   
0.879         -0.0262411   
0.88          -0.0262626   
0.881         -0.0262841   
0.882         -0.0263055   
0.883         -0.0263269   
0.884         -0.0263482   
0.885         -0.0263695   
0.886         -0.0263907   
0.887         -0.0264119   
0.888         -0.0264331   
0.889         -0.0264542   
0.89          -0.0264752   
0.891         -0.0264962   
0.892         -0.0265172   
0.893         -0.0265381   
0.894         -0.0265589   
0.895         -0.0265798   
0.896         -0.0266006   
0.897         -0.0266213   
0.898         -0.0266419   
0.899         -0.0266626   
0.9           -0.0266831   
0.901         -0.0267037   
0.902         -0.0267242   
0.903         -0.0267446   
0.904         -0.026765    
0.905         -0.0267854   
0.906         -0.0268057   
0.907         -0.026826    
0.908         -0.0268463   
0.909         -0.0268664   
0.91          -0.0268865   
0.911         -0.0269067   
0.912         -0.0269266   
0.913         -0.0269467   
0.914         -0.0269666   
0.915         -0.0269865   
0.916         -0.0270064   
0.917         -0.0270262   
0.918         -0.027046    
0.919         -0.0270657   
0.92          -0.0270854   
0.921         -0.0271051   
0.922         -0.0271247   
0.923         -0.0271443   
0.924         -0.0271638   
0.925         -0.0271833   
0.926         -0.0272027   
0.927         -0.0272221   
0.928         -0.0272415   
0.929         -0.0272608   
0.93          -0.0272801   
0.931         -0.0272994   
0.932         -0.0273185   
0.933         -0.0273377   
0.934         -0.0273567   
0.935         -0.0273758   
0.936         -0.0273948   
0.937         -0.0274138   
0.938         -0.0274327   
0.939         -0.0274516   
0.94          -0.0274705   
0.941         -0.0274894   
0.942         -0.0275081   
0.943         -0.0275268   
0.944         -0.0275455   
0.945         -0.0275641   
0.946         -0.0275828   
0.947         -0.0276013   
0.948         -0.0276198   
0.949         -0.0276383   
0.95          -0.0276568   
0.951         -0.0276752   
0.952         -0.0276936   
0.953         -0.0277119   
0.954         -0.0277302   
0.955         -0.0277484   
0.956         -0.0277666   
0.957         -0.0277848   
0.958         -0.0278029   
0.959         -0.027821    
0.96          -0.0278391   
0.961         -0.0278571   
0.962         -0.0278751   
0.963         -0.027893    
0.964         -0.0279109   
0.965         -0.0279288   
0.966         -0.0279466   
0.967         -0.0279644   
0.968         -0.0279821   
0.969         -0.0279998   
0.97          -0.0280175   
0.971         -0.0280351   
0.972         -0.0280528   
0.973         -0.0280703   
0.974         -0.0280878   
0.975         -0.0281053   
0.976         -0.0281228   
0.977         -0.0281402   
0.978         -0.0281576   
0.979         -0.0281749   
0.98          -0.0281922   
0.981         -0.0282095   
0.982         -0.0282267   
0.983         -0.0282439   
0.984         -0.028261    
0.985         -0.0282781   
0.986         -0.0282952   
0.987         -0.0283123   
0.988         -0.0283293   
0.989         -0.0283462   
0.99          -0.0283632   
0.991         -0.02838     
0.992         -0.0283969   
0.993         -0.0284137   
0.994         -0.0284305   
0.995         -0.0284473   
0.996         -0.028464    
0.997         -0.0284807   
0.998         -0.0284973   
0.999         -0.0285139   
1             -0.0285305   
1.001         -0.028547    
1.002         -0.0285635   
1.003         -0.02858     
1.004         -0.0285964   
1.005         -0.0286128   
1.006         -0.0286292   
1.007         -0.0286455   
1.008         -0.0286618   
1.009         -0.0286781   
1.01          -0.0286943   
1.011         -0.0287105   
1.012         -0.0287267   
1.013         -0.0287428   
1.014         -0.0287589   
1.015         -0.0287749   
1.016         -0.028791    
1.017         -0.0288069   
1.018         -0.0288229   
1.019         -0.0288388   
1.02          -0.0288547   
1.021         -0.0288706   
1.022         -0.0288864   
1.023         -0.0289022   
1.024         -0.0289179   
1.025         -0.0289336   
1.026         -0.0289493   
1.027         -0.028965    
1.028         -0.0289806   
1.029         -0.0289962   
1.03          -0.0290118   
1.031         -0.0290273   
1.032         -0.0290428   
1.033         -0.0290583   
1.034         -0.0290737   
1.035         -0.0290891   
1.036         -0.0291044   
1.037         -0.0291198   
1.038         -0.0291351   
1.039         -0.0291503   
1.04          -0.0291656   
1.041         -0.0291808   
1.042         -0.0291959   
1.043         -0.0292111   
1.044         -0.0292262   
1.045         -0.0292413   
1.046         -0.0292563   
1.047         -0.0292714   
1.048         -0.0292863   
1.049         -0.0293013   
1.05          -0.0293162   
1.051         -0.0293311   
1.052         -0.029346    
1.053         -0.0293608   
1.054         -0.0293756   
1.055         -0.0293904   
1.056         -0.0294051   
1.057         -0.0294198   
1.058         -0.0294345   
1.059         -0.0294491   
1.06          -0.0294638   
1.061         -0.0294784   
1.062         -0.0294929   
1.063         -0.0295074   
1.064         -0.0295219   
1.065         -0.0295364   
1.066         -0.0295508   
1.067         -0.0295652   
1.068         -0.0295796   
1.069         -0.029594    
1.07          -0.0296083   
1.071         -0.0296226   