0.001          0.69618 8.70016e-08 0 
0.002          0.833066 6.35036e-08 0 
0.003          0.876736 1.25796e-07 0 
0.004          0.897726 6.85404e-08 0 
0.005          0.910532 9.0957e-08 0 
0.006          0.919401 9.74846e-08 0 
0.007          0.926016 1.08059e-07 0 
0.008          0.931196 1.12196e-07 0 
0.009          0.935395 1.1586e-07 0 
0.01           0.938889 1.20593e-07 0 
0.011          0.941855 1.25011e-07 0 
0.012          0.944414 1.32466e-07 0 
0.013          0.946651 1.38588e-07 0 
0.014          0.948628 1.43082e-07 0 
0.015          0.950393 1.49469e-07 0 
0.016          0.95198 1.57263e-07 0 
0.017          0.953418 1.61495e-07 0 
0.018          0.954729 1.67959e-07 0 
0.019          0.95593 1.74009e-07 0 
0.02           0.957035 1.7926e-07 0 
0.021          0.958057 1.85126e-07 0 
0.022          0.959006 1.91953e-07 0 
0.023          0.959889 1.97468e-07 0 
0.024          0.960716 2.03244e-07 0 
0.025          0.96149 2.09724e-07 0 
0.026          0.962218 2.1573e-07 0 
0.027          0.962903 2.21904e-07 0 
0.028          0.963551 2.28327e-07 0 
0.029          0.964163 2.34641e-07 0 
0.03           0.964744 2.4059e-07 0 
0.031          0.965296 2.47108e-07 0 
0.032          0.965821 2.53153e-07 0 
0.033          0.96632 2.59145e-07 0 
0.034          0.966797 2.64888e-07 0 
0.035          0.967253 2.7178e-07 0 
0.036          0.967689 2.77846e-07 0 
0.037          0.968107 2.84602e-07 0 
0.038          0.968508 2.90509e-07 0 
0.039          0.968893 2.96837e-07 0 
0.04           0.969264 3.03682e-07 0 
0.041          0.96962 3.1006e-07 0 
0.042          0.969963 3.16173e-07 0 
0.043          0.970295 3.23061e-07 0 
0.044          0.970614 3.29129e-07 0 
0.045          0.970923 3.3551e-07 0 
0.046          0.971221 3.42159e-07 0 
0.047          0.971509 3.48617e-07 0 
0.048          0.971789 3.54878e-07 0 
0.049          0.972059 3.61417e-07 0 
0.05           0.972321 3.67784e-07 0 
0.051          0.972576 3.7438e-07 0 
0.052          0.972822 3.80406e-07 0 
0.053          0.973062 3.87e-07 0 
0.054          0.973294 3.93169e-07 0 
0.055          0.973519 3.99256e-07 0 
0.056          0.973739 4.05891e-07 0 
0.057          0.973953 4.12177e-07 0 
0.058          0.974161 4.18823e-07 0 
0.059          0.974363 4.25364e-07 0 
0.06           0.974561 4.31708e-07 0 
0.061          0.974753 4.38028e-07 0 
0.062          0.974941 4.44608e-07 0 
0.063          0.975124 4.5115e-07 0 
0.064          0.975303 4.5756e-07 0 
0.065          0.975478 4.64079e-07 0 
0.066          0.975649 4.70928e-07 0 
0.067          0.975816 4.77298e-07 0 
0.068          0.975979 4.83706e-07 0 
0.069          0.976138 4.90086e-07 0 
0.07           0.976294 4.96544e-07 0 
0.071          0.976447 5.0325e-07 0 
0.072          0.976596 5.09589e-07 0 
0.073          0.976742 5.15892e-07 0 
0.074          0.976886 5.22682e-07 0 
0.075          0.977026 5.29185e-07 0 
0.076          0.977164 5.35482e-07 0 
0.077          0.977298 5.42298e-07 0 
0.078          0.977431 5.48629e-07 0 
0.079          0.97756 5.55166e-07 0 
0.08           0.977687 5.61599e-07 0 
0.081          0.977812 5.68089e-07 0 
0.082          0.977934 5.74354e-07 0 
0.083          0.978054 5.80972e-07 0 
0.084          0.978172 5.87358e-07 0 
0.085          0.978288 5.93876e-07 0 
0.086          0.978402 6.00458e-07 0 
0.087          0.978514 6.06797e-07 0 
0.088          0.978624 6.1325e-07 0 
0.089          0.978732 6.19735e-07 0 
0.09           0.978837 6.25419e-07 0 
0.091          0.97894 6.31728e-07 0 
0.092          0.979042 6.38251e-07 0 
0.093          0.979142 6.44466e-07 0 
0.094          0.979241 6.50744e-07 0 
0.095          0.979338 6.57241e-07 0 
0.096          0.979434 6.63751e-07 0 
0.097          0.979528 6.69887e-07 0 
0.098          0.979621 6.76456e-07 0 
0.099          0.979712 6.8284e-07 0 
0.1            0.979802 6.89078e-07 0 
0.101          0.97989 6.95698e-07 0 
0.102          0.979978 7.02065e-07 0 
0.103          0.980064 7.08267e-07 0 
0.104          0.980148 7.14791e-07 0 
0.105          0.980232 7.21228e-07 0 
0.106          0.980314 7.27425e-07 0 
0.107          0.980395 7.33997e-07 0 
0.108          0.980475 7.40205e-07 0 
0.109          0.980554 7.46577e-07 0 
0.11           0.980632 7.53029e-07 0 
0.111          0.980709 7.59382e-07 0 
0.112          0.980784 7.65717e-07 0 
0.113          0.980859 7.72143e-07 0 
0.114          0.980933 7.78366e-07 0 
0.115          0.981005 7.84737e-07 0 
0.116          0.981077 7.91101e-07 0 
0.117          0.981148 7.9738e-07 0 
0.118          0.981218 8.03782e-07 0 
0.119          0.981287 8.1007e-07 0 
0.12           0.981355 8.16335e-07 0 
0.121          0.981422 8.22692e-07 0 
0.122          0.981489 8.29007e-07 0 
0.123          0.981554 8.35359e-07 0 
0.124          0.981619 8.41585e-07 0 
0.125          0.981683 8.47878e-07 0 
0.126          0.981746 8.54227e-07 0 
0.127          0.981809 8.60384e-07 0 
0.128          0.98187 8.66672e-07 0 
0.129          0.981931 8.72988e-07 0 
0.13           0.981992 8.79185e-07 0 
0.131          0.982051 8.85539e-07 0 
0.132          0.98211 8.91702e-07 0 
0.133          0.982168 8.98029e-07 0 
0.134          0.982226 9.04172e-07 0 
0.135          0.982283 9.10552e-07 0 
0.136          0.982339 9.16612e-07 0 
0.137          0.982395 9.22906e-07 0 
0.138          0.98245 9.29109e-07 0 
0.139          0.982504 9.35261e-07 0 
0.14           0.982558 9.41513e-07 0 
0.141          0.982611 9.47677e-07 0 
0.142          0.982664 9.53806e-07 0 
0.143          0.982716 9.60101e-07 0 
0.144          0.982767 9.66248e-07 0 
0.145          0.982818 9.72388e-07 0 
0.146          0.982869 9.7854e-07 0 
0.147          0.982919 9.84672e-07 0 
0.148          0.982968 9.90818e-07 0 
0.149          0.983017 9.97072e-07 0 
0.15           0.983065 1.00308e-06 0 
0.151          0.983113 1.00929e-06 0 
0.152          0.983161 1.01546e-06 0 
0.153          0.983207 1.02148e-06 0 
0.154          0.983254 1.02762e-06 0 
0.155          0.9833 1.03369e-06 0 
0.156          0.983345 1.03895e-06 0 
0.157          0.983389 1.04477e-06 0 
0.158          0.983433 1.05053e-06 0 
0.159          0.983477 1.0565e-06 0 
0.16           0.98352 1.06263e-06 0 
0.161          0.983563 1.06843e-06 0 
0.162          0.983605 1.07427e-06 0 
0.163          0.983647 1.08036e-06 0 
0.164          0.983689 1.08613e-06 0 
0.165          0.98373 1.0921e-06 0 
0.166          0.983771 1.09819e-06 0 
0.167          0.983812 1.10403e-06 0 
0.168          0.983852 1.1099e-06 0 
0.169          0.983892 1.11601e-06 0 
0.17           0.983932 1.12179e-06 0 
0.171          0.983971 1.12769e-06 0 
0.172          0.98401 1.13375e-06 0 
0.173          0.984048 1.13951e-06 0 
0.174          0.984086 1.14549e-06 0 
0.175          0.984124 1.15149e-06 0 
0.176          0.984162 1.15727e-06 0 
0.177          0.984199 1.16323e-06 0 
0.178          0.984236 1.16925e-06 0 
0.179          0.984273 1.1749e-06 0 
0.18           0.984309 1.18085e-06 0 
0.181          0.984345 1.18677e-06 0 
0.182          0.98438 1.19258e-06 0 
0.183          0.984416 1.19848e-06 0 
0.184          0.984451 1.20437e-06 0 
0.185          0.984486 1.21017e-06 0 
0.186          0.98452 1.21615e-06 0 
0.187          0.984555 1.22198e-06 0 
0.188          0.984589 1.22777e-06 0 
0.189          0.984622 1.2336e-06 0 
0.19           0.984656 1.23945e-06 0 
0.191          0.984689 1.24527e-06 0 
0.192          0.984722 1.25109e-06 0 
0.193          0.984755 1.25691e-06 0 
0.194          0.984787 1.26266e-06 0 
0.195          0.984819 1.26847e-06 0 
0.196          0.984851 1.27438e-06 0 
0.197          0.984883 1.28008e-06 0 
0.198          0.984914 1.28589e-06 0 
0.199          0.984945 1.29168e-06 0 
0.2            0.984976 1.29746e-06 0 
0.201          0.985007 1.3033e-06 0 
0.202          0.985037 1.30892e-06 0 
0.203          0.985067 1.31468e-06 0 
0.204          0.985097 1.32053e-06 0 
0.205          0.985127 1.32625e-06 0 
0.206          0.985157 1.332e-06 0 
0.207          0.985186 1.33765e-06 0 
0.208          0.985215 1.3434e-06 0 
0.209          0.985244 1.34912e-06 0 
0.21           0.985273 1.35483e-06 0 
0.211          0.985301 1.36053e-06 0 
0.212          0.985329 1.36626e-06 0 
0.213          0.985357 1.37202e-06 0 
0.214          0.985385 1.3776e-06 0 
0.215          0.985413 1.38326e-06 0 
0.216          0.98544 1.38906e-06 0 
0.217          0.985468 1.39463e-06 0 
0.218          0.985495 1.40027e-06 0 
0.219          0.985522 1.40599e-06 0 
0.22           0.985548 1.41161e-06 0 
0.221          0.985575 1.41729e-06 0 
0.222          0.985601 1.42287e-06 0 
0.223          0.985627 1.42855e-06 0 
0.224          0.985653 1.43417e-06 0 
0.225          0.985679 1.43984e-06 0 
0.226          0.985705 1.44535e-06 0 
0.227          0.98573 1.45097e-06 0 
0.228          0.985755 1.45664e-06 0 
0.229          0.985781 1.4622e-06 0 
0.23           0.985805 1.46774e-06 0 
0.231          0.98583 1.47334e-06 0 
0.232          0.985855 1.47899e-06 0 
0.233          0.985879 1.48454e-06 0 
0.234          0.985904 1.49016e-06 0 
0.235          0.985928 1.49567e-06 0 
0.236          0.985952 1.50126e-06 0 
0.237          0.985975 1.50674e-06 0 
0.238          0.985999 1.51231e-06 0 
0.239          0.986023 1.51788e-06 0 
0.24           0.986046 1.52331e-06 0 
0.241          0.986069 1.52892e-06 0 
0.242          0.986092 1.53449e-06 0 
0.243          0.986115 1.53993e-06 0 
0.244          0.986138 1.54547e-06 0 
0.245          0.98616 1.55095e-06 0 
0.246          0.986183 1.55639e-06 0 
0.247          0.986205 1.56191e-06 0 
0.248          0.986227 1.56744e-06 0 
0.249          0.986249 1.57291e-06 0 
0.25           0.986271 1.57833e-06 0 
0.251          0.986293 1.58385e-06 0 
0.252          0.986315 1.58927e-06 0 
0.253          0.986336 1.59466e-06 0 
0.254          0.986358 1.60017e-06 0 
0.255          0.986379 1.60564e-06 0 
0.256          0.9864 1.61098e-06 0 
0.257          0.986421 1.61648e-06 0 
0.258          0.986442 1.62186e-06 0 
0.259          0.986462 1.62733e-06 0 
0.26           0.986483 1.63274e-06 0 
0.261          0.986504 1.63807e-06 0 
0.262          0.986524 1.6435e-06 0 
0.263          0.986544 1.64892e-06 0 
0.264          0.986564 1.65435e-06 0 
0.265          0.986584 1.65969e-06 0 
0.266          0.986604 1.66505e-06 0 
0.267          0.986624 1.67043e-06 0 
0.268          0.986644 1.67573e-06 0 
0.269          0.986663 1.68114e-06 0 
0.27           0.986683 1.68648e-06 0 
0.271          0.986702 1.69185e-06 0 
0.272          0.986721 1.69717e-06 0 
0.273          0.98674 1.70255e-06 0 
0.274          0.986759 1.70784e-06 0 
0.275          0.986778 1.71321e-06 0 
0.276          0.986797 1.71852e-06 0 
0.277          0.986816 1.72379e-06 0 
0.278          0.986834 1.72914e-06 0 
0.279          0.986853 1.73444e-06 0 
0.28           0.986871 1.73972e-06 0 
0.281          0.986889 1.74505e-06 0 
0.282          0.986907 1.75032e-06 0 
0.283          0.986925 1.75555e-06 0 
0.284          0.986943 1.75989e-06 0 
0.285          0.98696 1.76483e-06 0 
0.286          0.986977 1.76985e-06 0 
0.287          0.986994 1.77482e-06 0 
0.288          0.987011 1.77982e-06 0 
0.289          0.987028 1.78482e-06 0 
0.29           0.987045 1.7898e-06 0 
0.291          0.987062 1.7948e-06 0 
0.292          0.987079 1.79986e-06 0 
0.293          0.987096 1.80488e-06 0 
0.294          0.987112 1.80988e-06 0 
0.295          0.987129 1.81494e-06 0 
0.296          0.987145 1.81998e-06 0 
0.297          0.987161 1.82497e-06 0 
0.298          0.987178 1.82998e-06 0 
0.299          0.987194 1.83505e-06 0 
0.3            0.98721 1.84006e-06 0 
0.301          0.987226 1.84509e-06 0 
0.302          0.987242 1.85013e-06 0 
0.303          0.987258 1.85515e-06 0 
0.304          0.987274 1.86021e-06 0 
0.305          0.98729 1.86516e-06 0 
0.306          0.987305 1.87019e-06 0 
0.307          0.987321 1.8752e-06 0 
0.308          0.987336 1.88024e-06 0 
0.309          0.987352 1.88533e-06 0 
0.31           0.987367 1.89026e-06 0 
0.311          0.987383 1.89534e-06 0 
0.312          0.987398 1.90029e-06 0 
0.313          0.987413 1.90531e-06 0 
0.314          0.987428 1.9102e-06 0 
0.315          0.987443 1.91532e-06 0 
0.316          0.987458 1.92029e-06 0 
0.317          0.987473 1.92527e-06 0 
0.318          0.987488 1.93025e-06 0 
0.319          0.987502 1.93525e-06 0 
0.32           0.987517 1.94024e-06 0 
0.321          0.987532 1.94521e-06 0 
0.322          0.987546 1.95018e-06 0 
0.323          0.987561 1.95519e-06 0 
0.324          0.987575 1.96014e-06 0 
0.325          0.98759 1.96512e-06 0 
0.326          0.987604 1.97007e-06 0 
0.327          0.987618 1.97501e-06 0 
0.328          0.987632 1.97998e-06 0 
0.329          0.987646 1.98496e-06 0 
0.33           0.98766 1.98993e-06 0 
0.331          0.987674 1.99487e-06 0 
0.332          0.987688 1.9998e-06 0 
0.333          0.987702 2.00478e-06 0 
0.334          0.987716 2.00969e-06 0 
0.335          0.987729 2.01463e-06 0 
0.336          0.987743 2.01955e-06 0 
0.337          0.987757 2.02449e-06 0 
0.338          0.98777 2.02941e-06 0 
0.339          0.987784 2.03433e-06 0 
0.34           0.987797 2.03925e-06 0 
0.341          0.98781 2.04419e-06 0 
0.342          0.987824 2.04906e-06 0 
0.343          0.987837 2.05401e-06 0 
0.344          0.98785 2.0589e-06 0 
0.345          0.987863 2.0638e-06 0 
0.346          0.987876 2.06872e-06 0 
0.347          0.987889 2.07359e-06 0 
0.348          0.987902 2.07849e-06 0 
0.349          0.987915 2.08335e-06 0 
0.35           0.987928 2.08829e-06 0 
0.351          0.987941 2.09311e-06 0 
0.352          0.987953 2.09802e-06 0 
0.353          0.987966 2.10287e-06 0 
0.354          0.987979 2.10779e-06 0 
0.355          0.987991 2.11259e-06 0 
0.356          0.988004 2.11752e-06 0 
0.357          0.988016 2.12231e-06 0 
0.358          0.988028 2.12717e-06 0 
0.359          0.988041 2.13202e-06 0 
0.36           0.988053 2.13687e-06 0 
0.361          0.988065 2.14177e-06 0 
0.362          0.988077 2.1466e-06 0 
0.363          0.988089 2.15146e-06 0 
0.364          0.988102 2.15628e-06 0 
0.365          0.988114 2.16111e-06 0 
0.366          0.988126 2.16591e-06 0 
0.367          0.988137 2.17076e-06 0 
0.368          0.988149 2.17553e-06 0 
0.369          0.988161 2.18039e-06 0 
0.37           0.988173 2.18523e-06 0 
0.371          0.988185 2.19005e-06 0 
0.372          0.988196 2.19485e-06 0 
0.373          0.988208 2.19963e-06 0 
0.374          0.988219 2.20444e-06 0 
0.375          0.988231 2.20921e-06 0 
0.376          0.988242 2.21399e-06 0 
0.377          0.988254 2.21871e-06 0 
0.378          0.988265 2.2236e-06 0 
0.379          0.988276 2.22834e-06 0 
0.38           0.988288 2.2331e-06 0 
0.381          0.988299 2.23791e-06 0 
0.382          0.98831 2.24268e-06 0 
0.383          0.988321 2.24739e-06 0 
0.384          0.988332 2.25218e-06 0 
0.385          0.988343 2.25689e-06 0 
0.386          0.988354 2.2617e-06 0 
0.387          0.988365 2.26642e-06 0 
0.388          0.988376 2.2712e-06 0 
0.389          0.988387 2.27589e-06 0 
0.39           0.988398 2.28067e-06 0 
0.391          0.988409 2.28538e-06 0 
0.392          0.988419 2.29014e-06 0 
0.393          0.98843 2.29486e-06 0 
0.394          0.988441 2.29958e-06 0 
0.395          0.988451 2.30435e-06 0 
0.396          0.988462 2.30904e-06 0 
0.397          0.988472 2.31376e-06 0 
0.398          0.988483 2.31845e-06 0 
0.399          0.988493 2.32319e-06 0 
0.4            0.988504 2.32788e-06 0 
0.401          0.988514 2.33263e-06 0 
0.402          0.988524 2.33733e-06 0 
0.403          0.988535 2.34202e-06 0 
0.404          0.988545 2.3467e-06 0 
0.405          0.988555 2.35145e-06 0 
0.406          0.988565 2.35607e-06 0 
0.407          0.988575 2.36085e-06 0 
0.408          0.988586 2.36548e-06 0 
0.409          0.988596 2.37014e-06 0 
0.41           0.988606 2.37484e-06 0 
0.411          0.988616 2.37958e-06 0 
0.412          0.988626 2.38418e-06 0 
0.413          0.988635 2.38891e-06 0 
0.414          0.988645 2.39352e-06 0 
0.415          0.988655 2.39827e-06 0 
0.416          0.988665 2.40285e-06 0 
0.417          0.988675 2.40752e-06 0 
0.418          0.988684 2.4122e-06 0 
0.419          0.988694 2.41684e-06 0 
0.42           0.988704 2.42152e-06 0 
0.421          0.988713 2.42613e-06 0 
0.422          0.988723 2.43083e-06 0 
0.423          0.988732 2.43548e-06 0 
0.424          0.988742 2.44008e-06 0 
0.425          0.988751 2.44472e-06 0 
0.426          0.988761 2.44937e-06 0 
0.427          0.98877 2.45399e-06 0 
0.428          0.988779 2.45864e-06 0 
0.429          0.988789 2.46326e-06 0 
0.43           0.988798 2.46787e-06 0 
0.431          0.988807 2.47249e-06 0 
0.432          0.988817 2.47712e-06 0 
0.433          0.988826 2.48174e-06 0 
0.434          0.988835 2.48632e-06 0 
0.435          0.988844 2.49094e-06 0 
0.436          0.988853 2.49555e-06 0 
0.437          0.988862 2.50021e-06 0 
0.438          0.988871 2.50476e-06 0 
0.439          0.98888 2.50939e-06 0 
0.44           0.988889 2.51394e-06 0 
0.441          0.988898 2.51858e-06 0 
0.442          0.988907 2.52314e-06 0 
0.443          0.988916 2.52772e-06 0 
0.444          0.988925 2.53229e-06 0 
0.445          0.988933 2.5369e-06 0 
0.446          0.988942 2.54145e-06 0 
0.447          0.988951 2.54606e-06 0 
0.448          0.98896 2.5506e-06 0 
0.449          0.988968 2.55519e-06 0 
0.45           0.988977 2.55977e-06 0 
0.451          0.988986 2.5643e-06 0 
0.452          0.988994 2.56893e-06 0 
0.453          0.989003 2.57344e-06 0 
0.454          0.989011 2.57802e-06 0 
0.455          0.98902 2.58255e-06 0 
0.456          0.989028 2.58712e-06 0 
0.457          0.989037 2.59168e-06 0 
0.458          0.989045 2.5962e-06 0 
0.459          0.989053 2.60077e-06 0 
0.46           0.989062 2.60531e-06 0 
0.461          0.98907 2.60985e-06 0 
0.462          0.989078 2.61438e-06 0 
0.463          0.989087 2.61891e-06 0 
0.464          0.989095 2.62342e-06 0 
0.465          0.989103 2.62799e-06 0 
0.466          0.989111 2.63255e-06 0 
0.467          0.989119 2.63705e-06 0 
0.468          0.989127 2.64157e-06 0 
0.469          0.989136 2.64611e-06 0 
0.47           0.989144 2.65063e-06 0 
0.471          0.989152 2.65513e-06 0 
0.472          0.98916 2.65967e-06 0 
0.473          0.989168 2.66415e-06 0 
0.474          0.989176 2.66863e-06 0 
0.475          0.989183 2.67314e-06 0 
0.476          0.989191 2.67771e-06 0 
0.477          0.989199 2.68217e-06 0 
0.478          0.989207 2.68669e-06 0 
0.479          0.989215 2.69118e-06 0 
0.48           0.989223 2.69568e-06 0 
0.481          0.98923 2.70013e-06 0 
0.482          0.989238 2.70468e-06 0 
0.483          0.989246 2.70913e-06 0 
0.484          0.989254 2.71364e-06 0 
0.485          0.989261 2.7181e-06 0 
0.486          0.989269 2.72262e-06 0 
0.487          0.989277 2.72707e-06 0 
0.488          0.989284 2.73159e-06 0 
0.489          0.989292 2.73603e-06 0 
0.49           0.989299 2.74053e-06 0 
0.491          0.989307 2.74494e-06 0 
0.492          0.989314 2.74946e-06 0 
0.493          0.989322 2.75391e-06 0 
0.494          0.989329 2.75837e-06 0 
0.495          0.989337 2.76285e-06 0 
0.496          0.989344 2.76731e-06 0 
0.497          0.989351 2.77176e-06 0 
0.498          0.989359 2.77622e-06 0 
0.499          0.989366 2.7807e-06 0 
0.5            0.989373 2.78513e-06 0 
0.501          0.989381 2.78957e-06 0 
0.502          0.989388 2.79401e-06 0 
0.503          0.989395 2.79847e-06 0 
0.504          0.989402 2.80292e-06 0 
0.505          0.989409 2.80735e-06 0 
0.506          0.989417 2.81178e-06 0 
0.507          0.989424 2.81624e-06 0 
0.508          0.989431 2.82067e-06 0 
0.509          0.989438 2.82509e-06 0 
0.51           0.989445 2.82954e-06 0 
0.511          0.989452 2.83398e-06 0 
0.512          0.989459 2.83839e-06 0 
0.513          0.989466 2.84279e-06 0 
0.514          0.989473 2.84722e-06 0 
0.515          0.98948 2.85168e-06 0 
0.516          0.989487 2.85606e-06 0 
0.517          0.989494 2.86052e-06 0 
0.518          0.989501 2.8649e-06 0 
0.519          0.989508 2.86934e-06 0 
0.52           0.989515 2.87377e-06 0 
0.521          0.989521 2.87816e-06 0 
0.522          0.989528 2.88258e-06 0 
0.523          0.989535 2.88693e-06 0 
0.524          0.989542 2.89138e-06 0 
0.525          0.989548 2.89578e-06 0 
0.526          0.989555 2.90019e-06 0 
0.527          0.989562 2.90459e-06 0 
0.528          0.989569 2.90899e-06 0 
0.529          0.989575 2.91338e-06 0 
0.53           0.989582 2.91776e-06 0 
0.531          0.989588 2.92212e-06 0 
0.532          0.989595 2.92654e-06 0 
0.533          0.989602 2.93091e-06 0 
0.534          0.989608 2.93532e-06 0 
0.535          0.989615 2.9397e-06 0 
0.536          0.989621 2.94409e-06 0 
0.537          0.989628 2.94846e-06 0 
0.538          0.989634 2.95286e-06 0 
0.539          0.989641 2.95722e-06 0 
0.54           0.989647 2.96158e-06 0 
0.541          0.989654 2.96597e-06 0 
0.542          0.98966 2.97033e-06 0 
0.543          0.989666 2.97469e-06 0 
0.544          0.989673 2.9791e-06 0 
0.545          0.989679 2.98343e-06 0 
0.546          0.989685 2.98783e-06 0 
0.547          0.989692 2.99219e-06 0 
0.548          0.989698 2.99653e-06 0 
0.549          0.989704 3.00089e-06 0 
0.55           0.989711 3.00524e-06 0 
0.551          0.989717 3.0096e-06 0 
0.552          0.989723 3.01398e-06 0 
0.553          0.989729 3.0183e-06 0 
0.554          0.989735 3.02268e-06 0 
0.555          0.989742 3.02698e-06 0 
0.556          0.989748 3.03133e-06 0 
0.557          0.989754 3.03572e-06 0 
0.558          0.98976 3.04003e-06 0 
0.559          0.989766 3.04439e-06 0 
0.56           0.989772 3.04871e-06 0 
0.561          0.989778 3.05309e-06 0 
0.562          0.989784 3.05739e-06 0 
0.563          0.98979 3.06173e-06 0 
0.564          0.989796 3.06606e-06 0 
0.565          0.989802 3.0704e-06 0 
0.566          0.989808 3.07473e-06 0 
0.567          0.989814 3.07907e-06 0 
0.568          0.98982 3.08339e-06 0 
0.569          0.989826 3.08771e-06 0 
0.57           0.989832 3.09202e-06 0 
0.571          0.989838 3.09635e-06 0 
0.572          0.989843 3.10054e-06 0 
0.573          0.989849 3.10448e-06 0 
0.574          0.989855 3.10849e-06 0 
0.575          0.98986 3.11256e-06 0 
0.576          0.989865 3.11657e-06 0 
0.577          0.989871 3.12066e-06 0 
0.578          0.989876 3.12463e-06 0 
0.579          0.989882 3.12874e-06 0 
0.58           0.989887 3.13278e-06 0 
0.581          0.989893 3.13678e-06 0 
0.582          0.989898 3.14082e-06 0 
0.583          0.989903 3.14489e-06 0 
0.584          0.989909 3.14888e-06 0 
0.585          0.989914 3.15295e-06 0 
0.586          0.989919 3.15695e-06 0 
0.587          0.989925 3.161e-06 0 
0.588          0.98993 3.16505e-06 0 
0.589          0.989935 3.16905e-06 0 
0.59           0.989941 3.17317e-06 0 
0.591          0.989946 3.17717e-06 0 
0.592          0.989951 3.1812e-06 0 
0.593          0.989957 3.18523e-06 0 
0.594          0.989962 3.1893e-06 0 
0.595          0.989967 3.19336e-06 0 
0.596          0.989972 3.19743e-06 0 
0.597          0.989978 3.2014e-06 0 
0.598          0.989983 3.20551e-06 0 
0.599          0.989988 3.20959e-06 0 
0.6            0.989993 3.21364e-06 0 
0.601          0.989998 3.2177e-06 0 
0.602          0.990004 3.22168e-06 0 
0.603          0.990009 3.22582e-06 0 
0.604          0.990014 3.22982e-06 0 
0.605          0.990019 3.23394e-06 0 
0.606          0.990024 3.23799e-06 0 
0.607          0.990029 3.24207e-06 0 
0.608          0.990034 3.24612e-06 0 
0.609          0.99004 3.25018e-06 0 
0.61           0.990045 3.25425e-06 0 
0.611          0.99005 3.25832e-06 0 
0.612          0.990055 3.26242e-06 0 
0.613          0.99006 3.26644e-06 0 
0.614          0.990065 3.27051e-06 0 
0.615          0.99007 3.27459e-06 0 
0.616          0.990075 3.27863e-06 0 
0.617          0.99008 3.28268e-06 0 
0.618          0.990085 3.28677e-06 0 
0.619          0.99009 3.29086e-06 0 
0.62           0.990095 3.29486e-06 0 
0.621          0.9901 3.29901e-06 0 
0.622          0.990105 3.30305e-06 0 
0.623          0.99011 3.30714e-06 0 
0.624          0.990115 3.31121e-06 0 
0.625          0.990119 3.31526e-06 0 
0.626          0.990124 3.31934e-06 0 
0.627          0.990129 3.32337e-06 0 
0.628          0.990134 3.32751e-06 0 
0.629          0.990139 3.33154e-06 0 
0.63           0.990144 3.33564e-06 0 
0.631          0.990149 3.33971e-06 0 
0.632          0.990154 3.34377e-06 0 
0.633          0.990158 3.34785e-06 0 
0.634          0.990163 3.35195e-06 0 
0.635          0.990168 3.35595e-06 0 
0.636          0.990173 3.36008e-06 0 
0.637          0.990178 3.36416e-06 0 
0.638          0.990182 3.36828e-06 0 
0.639          0.990187 3.37227e-06 0 
0.64           0.990192 3.37639e-06 0 
0.641          0.990197 3.38041e-06 0 
0.642          0.990201 3.38455e-06 0 
0.643          0.990206 3.38853e-06 0 
0.644          0.990211 3.39268e-06 0 
0.645          0.990215 3.39671e-06 0 
0.646          0.99022 3.40083e-06 0 
0.647          0.990225 3.40486e-06 0 
0.648          0.990229 3.40899e-06 0 
0.649          0.990234 3.41299e-06 0 
0.65           0.990239 3.41709e-06 0 
0.651          0.990243 3.42114e-06 0 
0.652          0.990248 3.42522e-06 0 
0.653          0.990253 3.42927e-06 0 
0.654          0.990257 3.4334e-06 0 
0.655          0.990262 3.43742e-06 0 
0.656          0.990266 3.44153e-06 0 
0.657          0.990271 3.44558e-06 0 
0.658          0.990275 3.4497e-06 0 
0.659          0.99028 3.45369e-06 0 
0.66           0.990285 3.45783e-06 0 
0.661          0.990289 3.46185e-06 0 
0.662          0.990294 3.46595e-06 0 
0.663          0.990298 3.47002e-06 0 
0.664          0.990303 3.4741e-06 0 
0.665          0.990307 3.47815e-06 0 
0.666          0.990312 3.48224e-06 0 
0.667          0.990316 3.48626e-06 0 
0.668          0.99032 3.49033e-06 0 
0.669          0.990325 3.49442e-06 0 
0.67           0.990329 3.49849e-06 0 
0.671          0.990334 3.50254e-06 0 
0.672          0.990338 3.5066e-06 0 
0.673          0.990343 3.51066e-06 0 
0.674          0.990347 3.51466e-06 0 
0.675          0.990351 3.51881e-06 0 
0.676          0.990356 3.52281e-06 0 
0.677          0.99036 3.52694e-06 0 
0.678          0.990364 3.53096e-06 0 
0.679          0.990369 3.53505e-06 0 
0.68           0.990373 3.53913e-06 0 
0.681          0.990377 3.54319e-06 0 
0.682          0.990382 3.54726e-06 0 
0.683          0.990386 3.55131e-06 0 
0.684          0.99039 3.55535e-06 0 
0.685          0.990395 3.55947e-06 0 
0.686          0.990399 3.56348e-06 0 
0.687          0.990403 3.56755e-06 0 
0.688          0.990407 3.57158e-06 0 
0.689          0.990412 3.57569e-06 0 
0.69           0.990416 3.57973e-06 0 
0.691          0.99042 3.58396e-06 0 
0.692          0.990424 3.58784e-06 0 
0.693          0.990428 3.59209e-06 0 
0.694          0.990433 3.59597e-06 0 
0.695          0.990437 3.6e-06 0 
0.696          0.990441 3.60404e-06 0 
0.697          0.990445 3.6081e-06 0 
0.698          0.990449 3.61216e-06 0 
0.699          0.990453 3.61621e-06 0 
0.7            0.990458 3.62029e-06 0 
0.701          0.990462 3.62465e-06 0 
0.702          0.990466 3.62866e-06 0 
0.703          0.99047 3.63279e-06 0 
0.704          0.990474 3.63677e-06 0 
0.705          0.990478 3.64081e-06 0 
0.706          0.990482 3.64462e-06 0 
0.707          0.990486 3.64858e-06 0 
0.708          0.99049 3.65294e-06 0 
0.709          0.990494 3.65678e-06 0 
0.71           0.990498 3.66103e-06 0 
0.711          0.990502 3.66511e-06 0 
0.712          0.990506 3.66913e-06 0 
0.713          0.99051 3.67319e-06 0 
0.714          0.990514 3.67729e-06 0 
0.715          0.990518 3.68131e-06 0 
0.716          0.990522 3.6854e-06 0 
0.717          0.990526 3.68935e-06 0 
0.718          0.99053 3.69349e-06 0 
0.719          0.990534 3.69744e-06 0 
0.72           0.990538 3.70156e-06 0 
0.721          0.990542 3.70553e-06 0 
0.722          0.990546 3.70963e-06 0 
0.723          0.99055 3.71361e-06 0 
0.724          0.990554 3.71768e-06 0 
0.725          0.990558 3.72168e-06 0 
0.726          0.990562 3.72577e-06 0 
0.727          0.990566 3.72973e-06 0 
0.728          0.99057 3.73383e-06 0 
0.729          0.990573 3.73779e-06 0 
0.73           0.990577 3.7419e-06 0 
0.731          0.990581 3.7458e-06 0 
0.732          0.990585 3.74994e-06 0 
0.733          0.990589 3.7539e-06 0 
0.734          0.990593 3.75803e-06 0 
0.735          0.990597 3.76203e-06 0 
0.736          0.9906 3.76609e-06 0 
0.737          0.990604 3.77002e-06 0 
0.738          0.990608 3.77414e-06 0 
0.739          0.990612 3.77811e-06 0 
0.74           0.990616 3.78218e-06 0 
0.741          0.990619 3.78618e-06 0 
0.742          0.990623 3.79018e-06 0 
0.743          0.990627 3.79423e-06 0 
0.744          0.990631 3.7982e-06 0 
0.745          0.990634 3.80226e-06 0 
0.746          0.990638 3.80627e-06 0 
0.747          0.990642 3.81031e-06 0 
0.748          0.990645 3.81429e-06 0 
0.749          0.990649 3.81832e-06 0 
0.75           0.990653 3.82235e-06 0 
0.751          0.990657 3.82636e-06 0 
0.752          0.99066 3.83039e-06 0 
0.753          0.990664 3.8344e-06 0 
0.754          0.990668 3.83837e-06 0 
0.755          0.990671 3.84241e-06 0 
0.756          0.990675 3.84643e-06 0 
0.757          0.990679 3.85036e-06 0 
0.758          0.990682 3.85444e-06 0 
0.759          0.990686 3.85844e-06 0 
0.76           0.990689 3.86243e-06 0 
0.761          0.990693 3.86646e-06 0 
0.762          0.990697 3.87047e-06 0 
0.763          0.9907 3.87449e-06 0 
0.764          0.990704 3.87848e-06 0 
0.765          0.990707 3.88249e-06 0 
0.766          0.990711 3.88649e-06 0 
0.767          0.990715 3.89052e-06 0 
0.768          0.990718 3.89447e-06 0 
0.769          0.990722 3.89846e-06 0 
0.77           0.990725 3.90248e-06 0 
0.771          0.990729 3.90647e-06 0 
0.772          0.990732 3.91048e-06 0 
0.773          0.990736 3.9145e-06 0 