# Probe 0 (0.5 0.5 0.05)
# Time        0            
25.001        -0.0202775   
25.002        -0.0202782   
25.003        -0.0202776   
25.004        -0.0202791   
25.005        -0.020281    
25.006        -0.0202823   
25.007        -0.0202811   
25.008        -0.0202828   
25.009        -0.0202846   
25.01         -0.0202861   
25.011        -0.0202851   
25.012        -0.0202866   
25.013        -0.0202885   
25.014        -0.0202898   
25.015        -0.0202887   
25.016        -0.0202903   
25.017        -0.0202921   
25.018        -0.0202936   
25.019        -0.0202926   
25.02         -0.0202941   
25.021        -0.020296    
25.022        -0.0202973   
25.023        -0.0202962   
25.024        -0.0202978   
25.025        -0.0202997   
25.026        -0.0203011   
25.027        -0.0203001   
25.028        -0.0203016   
25.029        -0.0203035   
25.03         -0.0203049   
25.031        -0.0203037   
25.032        -0.0203053   
25.033        -0.0203072   
25.034        -0.0203086   
25.035        -0.0203076   
25.036        -0.0203092   
25.037        -0.020311    
25.038        -0.0203124   
25.039        -0.0203112   
25.04         -0.0203128   
25.041        -0.0203147   
25.042        -0.0203161   
25.043        -0.0203151   
25.044        -0.0203167   
25.045        -0.0203185   
25.046        -0.0203199   
25.047        -0.0203188   
25.048        -0.0203204   
25.049        -0.0203223   
25.05         -0.0203237   
25.051        -0.0203226   
25.052        -0.0203242   
25.053        -0.020326    
25.054        -0.0203275   
25.055        -0.0203264   
25.056        -0.020328    
25.057        -0.0203298   
25.058        -0.0203312   
25.059        -0.0203302   
25.06         -0.0203318   
25.061        -0.0203336   
25.062        -0.020335    
25.063        -0.0203339   
25.064        -0.0203355   
25.065        -0.0203374   
25.066        -0.0203388   
25.067        -0.0203377   
25.068        -0.0203393   
25.069        -0.0203412   
25.07         -0.0203426   
25.071        -0.0203415   
25.072        -0.020343    
25.073        -0.020345    
25.074        -0.0203464   
25.075        -0.0203453   
25.076        -0.0203469   
25.077        -0.0203488   
25.078        -0.0203501   
25.079        -0.020349    
25.08         -0.0203507   
25.081        -0.0203526   
25.082        -0.020354    
25.083        -0.020353    
25.084        -0.0203546   
25.085        -0.0203564   
25.086        -0.0203578   
25.087        -0.0203567   
25.088        -0.0203584   
25.089        -0.0203603   
25.09         -0.0203616   
25.091        -0.0203606   
25.092        -0.0203622   
25.093        -0.020364    
25.094        -0.0203654   
25.095        -0.0203644   
25.096        -0.020366    
25.097        -0.0203678   
25.098        -0.0203693   
25.099        -0.0203682   
25.1          -0.0203698   
25.101        -0.0203717   
25.102        -0.0203731   
25.103        -0.020372    
25.104        -0.0203736   
25.105        -0.0203755   
25.106        -0.0203769   
25.107        -0.0203759   
25.108        -0.0203775   
25.109        -0.0203793   
25.11         -0.0203807   
25.111        -0.0203796   
25.112        -0.0203813   
25.113        -0.0203831   
25.114        -0.0203846   
25.115        -0.0203835   
25.116        -0.0203851   
25.117        -0.020387    
25.118        -0.0203884   
25.119        -0.0203873   
25.12         -0.0203889   
25.121        -0.0203908   
25.122        -0.0203922   
25.123        -0.0203912   
25.124        -0.0203928   
25.125        -0.0203947   
25.126        -0.0203961   
25.127        -0.020395    
25.128        -0.0203965   
25.129        -0.0203985   
25.13         -0.0203999   
25.131        -0.0203989   
25.132        -0.0204005   
25.133        -0.0204024   
25.134        -0.0204038   
25.135        -0.0204027   
25.136        -0.0204043   
25.137        -0.0204062   
25.138        -0.0204076   
25.139        -0.0204066   
25.14         -0.0204082   
25.141        -0.0204101   
25.142        -0.0204115   
25.143        -0.0204104   
25.144        -0.0204121   
25.145        -0.0204139   
25.146        -0.0204154   
25.147        -0.0204143   
25.148        -0.0204159   
25.149        -0.0204178   
25.15         -0.0204192   
25.151        -0.0204182   
25.152        -0.0204198   
25.153        -0.0204217   
25.154        -0.0204231   
25.155        -0.0204221   
25.156        -0.0204237   
25.157        -0.0204256   
25.158        -0.020427    
25.159        -0.0204259   
25.16         -0.0204276   
25.161        -0.0204294   
25.162        -0.0204309   
25.163        -0.0204298   
25.164        -0.0204314   
25.165        -0.0204333   
25.166        -0.0204347   
25.167        -0.0204337   
25.168        -0.0204353   
25.169        -0.0204372   
25.17         -0.0204386   
25.171        -0.0204376   
25.172        -0.0204392   
25.173        -0.0204411   
25.174        -0.0204425   
25.175        -0.0204415   
25.176        -0.0204431   
25.177        -0.020445    
25.178        -0.0204464   
25.179        -0.0204454   
25.18         -0.020447    
25.181        -0.0204489   
25.182        -0.0204503   
25.183        -0.0204492   
25.184        -0.0204509   
25.185        -0.0204528   
25.186        -0.0204542   
25.187        -0.0204532   
25.188        -0.0204548   
25.189        -0.0204567   
25.19         -0.0204581   
25.191        -0.0204571   
25.192        -0.0204587   
25.193        -0.0204606   
25.194        -0.020462    
25.195        -0.020461    
25.196        -0.0204626   
25.197        -0.0204645   
25.198        -0.0204659   
25.199        -0.0204649   
25.2          -0.0204665   
25.201        -0.0204684   
25.202        -0.0204699   
25.203        -0.0204688   
25.204        -0.0204705   
25.205        -0.0204723   
25.206        -0.0204738   
25.207        -0.0204727   
25.208        -0.0204743   
25.209        -0.0204762   
25.21         -0.0204777   
25.211        -0.0204767   
25.212        -0.0204783   
25.213        -0.0204802   
25.214        -0.0204816   
25.215        -0.0204806   
25.216        -0.0204822   
25.217        -0.0204841   
25.218        -0.0204855   
25.219        -0.0204845   
25.22         -0.0204862   
25.221        -0.020488    
25.222        -0.0204895   
25.223        -0.0204884   
25.224        -0.0204901   
25.225        -0.020492    
25.226        -0.0204934   
25.227        -0.0204924   
25.228        -0.020494    
25.229        -0.0204959   
25.23         -0.0204973   
25.231        -0.0204963   
25.232        -0.0204979   
25.233        -0.0204998   
25.234        -0.0205012   
25.235        -0.0205003   
25.236        -0.0205019   
25.237        -0.0205038   
25.238        -0.0205053   
25.239        -0.0205042   
25.24         -0.0205059   
25.241        -0.0205078   
25.242        -0.0205092   
25.243        -0.0205082   
25.244        -0.0205099   
25.245        -0.0205117   
25.246        -0.0205132   
25.247        -0.0205121   
25.248        -0.0205138   
25.249        -0.0205157   
25.25         -0.0205171   
25.251        -0.0205161   
25.252        -0.0205177   
25.253        -0.0205196   
25.254        -0.020521    
25.255        -0.0205201   
25.256        -0.0205217   
25.257        -0.0205236   
25.258        -0.0205251   
25.259        -0.0205241   
25.26         -0.0205258   
25.261        -0.0205276   
25.262        -0.0205291   
25.263        -0.020528    
25.264        -0.0205297   
25.265        -0.0205316   
25.266        -0.020533    
25.267        -0.0205321   
25.268        -0.0205337   
25.269        -0.0205356   
25.27         -0.020537    
25.271        -0.0205359   
25.272        -0.0205376   
25.273        -0.0205395   
25.274        -0.020541    
25.275        -0.02054     
25.276        -0.0205417   
25.277        -0.0205435   
25.278        -0.020545    
25.279        -0.0205439   
25.28         -0.0205456   
25.281        -0.0205475   
25.282        -0.020549    
25.283        -0.020548    
25.284        -0.0205497   
25.285        -0.0205515   
25.286        -0.020553    
25.287        -0.0205519   
25.288        -0.0205536   
25.289        -0.0205555   
25.29         -0.020557    
25.291        -0.020556    
25.292        -0.0205577   
25.293        -0.0205595   
25.294        -0.020561    
25.295        -0.0205599   
25.296        -0.0205616   
25.297        -0.0205635   
25.298        -0.020565    
25.299        -0.020564    
25.3          -0.0205657   
25.301        -0.0205676   
25.302        -0.020569    
25.303        -0.020568    
25.304        -0.0205696   
25.305        -0.0205715   
25.306        -0.020573    
25.307        -0.020572    
25.308        -0.0205737   
25.309        -0.0205756   
25.31         -0.020577    
25.311        -0.020576    
25.312        -0.0205777   
25.313        -0.0205796   
25.314        -0.0205811   
25.315        -0.0205801   
25.316        -0.0205817   
25.317        -0.0205836   
25.318        -0.0205851   
25.319        -0.020584    
25.32         -0.0205857   
25.321        -0.0205876   
25.322        -0.0205891   
25.323        -0.0205881   
25.324        -0.0205898   
25.325        -0.0205917   
25.326        -0.0205931   
25.327        -0.0205921   
25.328        -0.0205938   
25.329        -0.0205957   
25.33         -0.0205972   
25.331        -0.0205962   
25.332        -0.0205979   
25.333        -0.0205998   
25.334        -0.0206012   
25.335        -0.0206002   
25.336        -0.0206019   
25.337        -0.0206038   
25.338        -0.0206052   
25.339        -0.0206043   
25.34         -0.0206059   
25.341        -0.0206078   
25.342        -0.0206093   
25.343        -0.0206083   
25.344        -0.02061     
25.345        -0.0206119   
25.346        -0.0206134   
25.347        -0.0206124   
25.348        -0.0206141   
25.349        -0.020616    
25.35         -0.0206174   
25.351        -0.0206164   
25.352        -0.0206181   
25.353        -0.02062     
25.354        -0.0206215   
25.355        -0.0206205   
25.356        -0.0206221   
25.357        -0.020624    
25.358        -0.0206255   
25.359        -0.0206245   
25.36         -0.0206262   
25.361        -0.0206281   
25.362        -0.0206296   
25.363        -0.0206286   
25.364        -0.0206303   
25.365        -0.0206322   
25.366        -0.0206337   
25.367        -0.0206326   
25.368        -0.0206343   
25.369        -0.0206363   
25.37         -0.0206377   
25.371        -0.0206367   
25.372        -0.0206384   
25.373        -0.0206403   
25.374        -0.0206418   
25.375        -0.0206408   
25.376        -0.0206425   
25.377        -0.0206444   
25.378        -0.0206459   
25.379        -0.0206449   
25.38         -0.0206466   
25.381        -0.0206485   
25.382        -0.02065     
25.383        -0.020649    
25.384        -0.0206507   
25.385        -0.0206526   
25.386        -0.020654    
25.387        -0.020653    
25.388        -0.0206548   
25.389        -0.0206567   
25.39         -0.0206581   
25.391        -0.0206571   
25.392        -0.0206588   
25.393        -0.0206607   
25.394        -0.0206622   
25.395        -0.0206618   
25.396        -0.0206635   
25.397        -0.0206646   
25.398        -0.0206656   
25.399        -0.0206666   
25.4          -0.0206676   
25.401        -0.0206686   
25.402        -0.0206696   
25.403        -0.0206707   
25.404        -0.0206718   
25.405        -0.0206728   
25.406        -0.0206738   
25.407        -0.0206748   
25.408        -0.0206758   
25.409        -0.0206769   
25.41         -0.0206779   
25.411        -0.0206789   
25.412        -0.02068     
25.413        -0.020681    
25.414        -0.020682    
25.415        -0.020683    
25.416        -0.0206841   
25.417        -0.0206851   
25.418        -0.0206861   
25.419        -0.0206871   
25.42         -0.0206882   
25.421        -0.0206892   
25.422        -0.0206902   
25.423        -0.0206912   
25.424        -0.0206923   
25.425        -0.0206933   
25.426        -0.0206943   
25.427        -0.0206954   
25.428        -0.0206964   
25.429        -0.0206974   
25.43         -0.0206984   
25.431        -0.0206995   
25.432        -0.0207005   
25.433        -0.0207015   
25.434        -0.0207026   
25.435        -0.0207036   
25.436        -0.0207046   
25.437        -0.0207057   
25.438        -0.0207067   
25.439        -0.0207077   
25.44         -0.0207088   
25.441        -0.0207098   
25.442        -0.0207108   
25.443        -0.0207119   
25.444        -0.0207129   
25.445        -0.0207139   
25.446        -0.020715    
25.447        -0.020716    
25.448        -0.020717    
25.449        -0.0207181   
25.45         -0.0207191   
25.451        -0.0207201   
25.452        -0.0207211   
25.453        -0.0207222   
25.454        -0.0207232   
25.455        -0.0207242   
25.456        -0.0207253   
25.457        -0.0207263   
25.458        -0.0207274   
25.459        -0.0207284   
25.46         -0.0207294   
25.461        -0.0207305   
25.462        -0.0207315   
25.463        -0.0207325   
25.464        -0.0207336   
25.465        -0.0207346   
25.466        -0.0207357   
25.467        -0.0207367   
25.468        -0.0207377   
25.469        -0.0207388   
25.47         -0.0207398   
25.471        -0.0207408   
25.472        -0.0207419   
25.473        -0.0207429   
25.474        -0.020744    
25.475        -0.020745    
25.476        -0.020746    
25.477        -0.0207471   
25.478        -0.0207481   
25.479        -0.0207492   
25.48         -0.0207502   
25.481        -0.0207512   
25.482        -0.0207523   
25.483        -0.0207533   
25.484        -0.0207544   
25.485        -0.0207554   
25.486        -0.0207565   
25.487        -0.0207575   
25.488        -0.0207585   
25.489        -0.0207596   
25.49         -0.0207606   
25.491        -0.0207617   
25.492        -0.0207627   
25.493        -0.0207637   
25.494        -0.0207648   
25.495        -0.0207658   
25.496        -0.0207669   
25.497        -0.0207679   
25.498        -0.020769    
25.499        -0.02077     
25.5          -0.0207711   
25.501        -0.0207721   
25.502        -0.0207731   
25.503        -0.0207741   
25.504        -0.0207752   
25.505        -0.0207763   
25.506        -0.0207773   
25.507        -0.0207784   
25.508        -0.0207794   
25.509        -0.0207805   
25.51         -0.0207815   
25.511        -0.0207826   
25.512        -0.0207836   
25.513        -0.0207847   
25.514        -0.0207857   
25.515        -0.0207868   
25.516        -0.0207878   
25.517        -0.0207889   
25.518        -0.0207899   
25.519        -0.020791    
25.52         -0.020792    
25.521        -0.0207931   
25.522        -0.0207941   
25.523        -0.0207951   
25.524        -0.0207962   
25.525        -0.0207973   
25.526        -0.0207983   
25.527        -0.0207993   
25.528        -0.0208003   
25.529        -0.0208015   
25.53         -0.0208025   
25.531        -0.0208036   
25.532        -0.0208047   
25.533        -0.0208057   
25.534        -0.0208068   
25.535        -0.0208078   
25.536        -0.0208089   
25.537        -0.0208099   
25.538        -0.020811    
25.539        -0.020812    
25.54         -0.0208131   
25.541        -0.0208142   
25.542        -0.0208153   
25.543        -0.0208163   
25.544        -0.0208173   
25.545        -0.0208183   
25.546        -0.0208194   
25.547        -0.0208205   
25.548        -0.0208215   
25.549        -0.0208226   
25.55         -0.0208236   
25.551        -0.0208247   
25.552        -0.0208257   
25.553        -0.0208268   
25.554        -0.0208278   
25.555        -0.0208289   
25.556        -0.0208299   
25.557        -0.020831    
25.558        -0.0208321   
25.559        -0.0208331   
25.56         -0.0208342   
25.561        -0.0208352   
25.562        -0.0208363   
25.563        -0.0208374   
25.564        -0.0208384   
25.565        -0.0208395   
25.566        -0.0208405   
25.567        -0.0208416   
25.568        -0.0208427   
25.569        -0.0208437   
25.57         -0.0208448   
25.571        -0.0208458   
25.572        -0.0208469   
25.573        -0.020848    
25.574        -0.020849    
25.575        -0.0208501   
25.576        -0.0208511   
25.577        -0.0208522   
25.578        -0.0208533   
25.579        -0.0208543   
25.58         -0.0208554   
25.581        -0.0208565   
25.582        -0.0208575   
25.583        -0.0208586   
25.584        -0.0208596   
25.585        -0.0208606   
25.586        -0.0208618   
25.587        -0.0208629   
25.588        -0.0208639   
25.589        -0.020865    
25.59         -0.0208661   
25.591        -0.0208671   
25.592        -0.0208682   
25.593        -0.0208693   
25.594        -0.0208703   
25.595        -0.0208714   
25.596        -0.0208725   
25.597        -0.0208735   
25.598        -0.0208746   
25.599        -0.0208757   
25.6          -0.0208767   
25.601        -0.0208778   
25.602        -0.0208789   
25.603        -0.0208799   
25.604        -0.020881    
25.605        -0.0208821   
25.606        -0.0208832   
25.607        -0.0208842   
25.608        -0.0208853   
25.609        -0.0208864   
25.61         -0.0208874   
25.611        -0.0208885   
25.612        -0.0208895   
25.613        -0.0208906   
25.614        -0.0208917   
25.615        -0.0208927   
25.616        -0.0208938   
25.617        -0.0208949   
25.618        -0.020896    
25.619        -0.020897    
25.62         -0.0208981   
25.621        -0.0208992   
25.622        -0.0209003   
25.623        -0.0209013   
25.624        -0.0209024   
25.625        -0.0209035   
25.626        -0.0209045   
25.627        -0.0209056   
25.628        -0.0209067   
25.629        -0.0209078   
25.63         -0.0209088   
25.631        -0.0209099   
25.632        -0.020911    
25.633        -0.0209121   
25.634        -0.0209131   
25.635        -0.0209142   
25.636        -0.0209153   
25.637        -0.0209164   
25.638        -0.0209174   
25.639        -0.0209185   
25.64         -0.0209196   
25.641        -0.0209207   
25.642        -0.0209218   
25.643        -0.0209228   
25.644        -0.0209239   
25.645        -0.020925    
25.646        -0.0209261   
25.647        -0.0209271   
25.648        -0.0209282   
25.649        -0.0209293   
25.65         -0.0209304   
25.651        -0.0209315   
25.652        -0.0209325   
25.653        -0.0209336   
25.654        -0.0209347   
25.655        -0.0209358   
25.656        -0.0209368   
25.657        -0.0209379   
25.658        -0.020939    
25.659        -0.0209401   
25.66         -0.0209411   
25.661        -0.0209422   
25.662        -0.0209433   
25.663        -0.0209444   
25.664        -0.0209455   
25.665        -0.0209465   
25.666        -0.0209476   
25.667        -0.0209487   
25.668        -0.0209498   
25.669        -0.0209509   
25.67         -0.020952    
25.671        -0.0209531   
25.672        -0.0209541   
25.673        -0.0209552   
25.674        -0.0209563   
25.675        -0.0209574   
25.676        -0.0209585   
25.677        -0.0209595   
25.678        -0.0209606   
25.679        -0.0209617   
25.68         -0.0209628   
25.681        -0.0209638   
25.682        -0.020965    
25.683        -0.0209661   
25.684        -0.0209672   
25.685        -0.0209683   
25.686        -0.0209693   
25.687        -0.0209704   
25.688        -0.0209715   
25.689        -0.0209726   
25.69         -0.0209737   
25.691        -0.0209748   
25.692        -0.0209759   
25.693        -0.0209769   
25.694        -0.020978    
25.695        -0.0209791   
25.696        -0.0209802   
25.697        -0.0209813   
25.698        -0.0209824   
25.699        -0.0209835   
25.7          -0.0209846   
25.701        -0.0209857   
25.702        -0.0209867   
25.703        -0.0209878   
25.704        -0.0209889   
25.705        -0.02099     
25.706        -0.0209911   
25.707        -0.0209922   
25.708        -0.0209933   
25.709        -0.0209944   
25.71         -0.0209955   
25.711        -0.0209966   
25.712        -0.0209977   
25.713        -0.0209987   
25.714        -0.0209998   
25.715        -0.0210009   
25.716        -0.021002    
25.717        -0.0210031   
25.718        -0.0210042   
25.719        -0.0210053   
25.72         -0.0210064   
25.721        -0.0210075   
25.722        -0.0210086   
25.723        -0.0210097   
25.724        -0.0210108   
25.725        -0.0210119   
25.726        -0.021013    
25.727        -0.0210141   
25.728        -0.0210152   
25.729        -0.0210163   
25.73         -0.0210174   
25.731        -0.0210185   
25.732        -0.0210195   
25.733        -0.0210206   
25.734        -0.0210217   
25.735        -0.0210228   
25.736        -0.0210239   
25.737        -0.021025    
25.738        -0.0210261   
25.739        -0.0210272   
25.74         -0.0210283   
25.741        -0.0210294   
25.742        -0.0210305   
25.743        -0.0210316   
25.744        -0.0210327   
25.745        -0.0210338   
25.746        -0.0210349   
25.747        -0.021036    
25.748        -0.0210371   
25.749        -0.0210382   
25.75         -0.0210393   
25.751        -0.0210404   
25.752        -0.0210415   
25.753        -0.0210426   
25.754        -0.0210437   
25.755        -0.0210448   
25.756        -0.0210459   
25.757        -0.021047    
25.758        -0.0210481   
25.759        -0.0210492   
25.76         -0.0210503   
25.761        -0.0210514   
25.762        -0.0210525   
25.763        -0.0210536   
25.764        -0.0210548   
25.765        -0.0210559   
25.766        -0.021057    
25.767        -0.0210581   
25.768        -0.0210591   
25.769        -0.0210602   
25.77         -0.0210613   
25.771        -0.0210624   
25.772        -0.0210636   
25.773        -0.0210647   
25.774        -0.0210658   
25.775        -0.0210669   
25.776        -0.021068    
25.777        -0.0210691   
25.778        -0.0210702   
25.779        -0.0210713   
25.78         -0.0210724   
25.781        -0.0210735   
25.782        -0.0210746   
25.783        -0.0210757   
25.784        -0.0210768   
25.785        -0.0210779   
25.786        -0.021079    
25.787        -0.0210801   
25.788        -0.0210812   
25.789        -0.0210823   
25.79         -0.0210834   
25.791        -0.0210845   
25.792        -0.0210857   
25.793        -0.0210868   
25.794        -0.0210879   
25.795        -0.021089    
25.796        -0.0210901   
25.797        -0.0210912   
25.798        -0.0210923   
25.799        -0.0210935   
25.8          -0.0210946   
25.801        -0.0210957   
25.802        -0.0210968   
25.803        -0.0210979   
25.804        -0.021099    
25.805        -0.0211002   
25.806        -0.0211013   
25.807        -0.0211024   
25.808        -0.0211035   
25.809        -0.0211046   
25.81         -0.0211057   
25.811        -0.0211068   
25.812        -0.0211079   
25.813        -0.0211091   
25.814        -0.0211102   
25.815        -0.0211113   
25.816        -0.0211124   
25.817        -0.0211135   
25.818        -0.0211147   
25.819        -0.0211158   
25.82         -0.0211168   
25.821        -0.021118    
25.822        -0.0211191   
25.823        -0.0211202   
25.824        -0.0211213   
25.825        -0.0211224   
25.826        -0.0211235   
25.827        -0.0211246   
25.828        -0.0211258   
25.829        -0.0211269   
25.83         -0.021128    
25.831        -0.0211291   
25.832        -0.0211302   
25.833        -0.0211313   
25.834        -0.0211325   
25.835        -0.0211336   
25.836        -0.0211347   
25.837        -0.0211358   
25.838        -0.0211369   
25.839        -0.021138    
25.84         -0.0211392   
25.841        -0.0211403   
25.842        -0.0211414   
25.843        -0.0211425   
25.844        -0.0211436   
25.845        -0.0211448   
25.846        -0.0211459   
25.847        -0.021147    
25.848        -0.0211481   
25.849        -0.0211492   
25.85         -0.0211504   
25.851        -0.0211515   
25.852        -0.0211526   
25.853        -0.0211538   
25.854        -0.0211549   
25.855        -0.021156    
25.856        -0.0211571   
25.857        -0.0211582   
25.858        -0.0211594   
25.859        -0.0211605   
25.86         -0.0211616   
25.861        -0.0211627   
25.862        -0.0211639   
25.863        -0.021165    
25.864        -0.0211661   
25.865        -0.0211672   
25.866        -0.0211684   
25.867        -0.0211695   
25.868        -0.0211706   
25.869        -0.0211717   
25.87         -0.0211729   
25.871        -0.021174    
25.872        -0.0211751   
25.873        -0.0211762   
25.874        -0.0211773   
25.875        -0.0211785   
25.876        -0.0211796   
25.877        -0.0211807   
25.878        -0.0211819   
25.879        -0.021183    
25.88         -0.0211841   
25.881        -0.0211852   
25.882        -0.0211864   
25.883        -0.0211875   
25.884        -0.0211886   
25.885        -0.0211898   
25.886        -0.0211909   
25.887        -0.021192    
25.888        -0.0211932   
25.889        -0.0211943   
25.89         -0.0211954   
25.891        -0.0211965   
25.892        -0.0211976   
25.893        -0.0211988   
25.894        -0.0211999   
25.895        -0.021201    
25.896        -0.0212022   
25.897        -0.0212033   
25.898        -0.0212044   
25.899        -0.0212055   
25.9          -0.0212067   
25.901        -0.0212078   
25.902        -0.0212089   
25.903        -0.0212101   
25.904        -0.0212112   
25.905        -0.0212123   
25.906        -0.0212135   
25.907        -0.0212146   
25.908        -0.0212157   
25.909        -0.0212169   
25.91         -0.021218    
25.911        -0.0212191   
25.912        -0.0212203   
25.913        -0.0212214   
25.914        -0.0212225   
25.915        -0.0212237   
25.916        -0.0212248   
25.917        -0.0212259   
25.918        -0.0212271   
25.919        -0.0212282   
25.92         -0.0212293   
25.921        -0.0212305   
25.922        -0.0212316   
25.923        -0.0212327   
25.924        -0.0212339   
25.925        -0.021235    
25.926        -0.0212361   
25.927        -0.0212373   
25.928        -0.0212384   
25.929        -0.0212396   
25.93         -0.0212407   
25.931        -0.0212418   
25.932        -0.021243    
25.933        -0.0212441   
25.934        -0.0212452   
25.935        -0.0212464   
25.936        -0.0212475   
25.937        -0.0212487   
25.938        -0.0212498   
25.939        -0.0212509   
25.94         -0.0212521   
25.941        -0.0212532   
25.942        -0.0212544   
25.943        -0.0212555   
25.944        -0.0212566   
25.945        -0.0212578   
25.946        -0.0212589   
25.947        -0.0212601   
25.948        -0.0212612   
25.949        -0.0212624   
25.95         -0.0212635   
25.951        -0.0212646   
25.952        -0.0212657   
25.953        -0.0212669   
25.954        -0.021268    
25.955        -0.0212692   
25.956        -0.0212703   
25.957        -0.0212715   
25.958        -0.0212726   
25.959        -0.0212737   
25.96         -0.0212749   
25.961        -0.021276    
25.962        -0.0212772   
25.963        -0.0212783   
25.964        -0.0212794   
25.965        -0.0212806   
25.966        -0.0212817   
25.967        -0.0212829   
25.968        -0.021284    
25.969        -0.0212852   
25.97         -0.0212863   
25.971        -0.0212875   
25.972        -0.0212886   
25.973        -0.0212897   
25.974        -0.0212909   
25.975        -0.021292    
25.976        -0.0212932   
25.977        -0.0212943   
25.978        -0.0212955   
25.979        -0.0212966   
25.98         -0.0212978   
25.981        -0.0212989   
25.982        -0.0213001   
25.983        -0.0213012   
25.984        -0.0213024   
25.985        -0.0213035   
25.986        -0.0213046   
25.987        -0.0213058   
25.988        -0.0213069   
25.989        -0.0213081   
25.99         -0.0213092   
25.991        -0.0213104   
25.992        -0.0213115   
25.993        -0.0213127   
25.994        -0.0213138   
25.995        -0.021315    
25.996        -0.0213161   
25.997        -0.0213173   
25.998        -0.0213184   
25.999        -0.0213196   
26            -0.0213207   
26.001        -0.0213219   
26.002        -0.021323    
26.003        -0.0213242   
26.004        -0.0213253   
26.005        -0.0213265   
26.006        -0.0213276   
26.007        -0.0213288   
26.008        -0.0213299   
26.009        -0.0213311   
26.01         -0.0213322   
26.011        -0.0213334   
26.012        -0.0213345   
26.013        -0.0213357   
26.014        -0.0213368   
26.015        -0.021338    
26.016        -0.0213392   
26.017        -0.0213403   
26.018        -0.0213415   
26.019        -0.0213426   
26.02         -0.0213438   
26.021        -0.0213449   
26.022        -0.0213461   
26.023        -0.0213473   
26.024        -0.0213483   
26.025        -0.0213495   
26.026        -0.0213507   
26.027        -0.0213518   
26.028        -0.021353    
26.029        -0.0213541   
26.03         -0.0213552   
26.031        -0.0213564   
26.032        -0.0213576   
26.033        -0.0213588   
26.034        -0.0213599   
26.035        -0.0213611   
26.036        -0.0213622   
26.037        -0.0213634   
26.038        -0.0213645   
26.039        -0.0213656   
26.04         -0.0213668   
26.041        -0.0213681   
26.042        -0.0213692   
26.043        -0.0213704   
26.044        -0.0213715   
26.045        -0.0213727   
26.046        -0.0213738   
26.047        -0.021375    
26.048        -0.0213761   
26.049        -0.0213773   
26.05         -0.0213785   
26.051        -0.0213796   
26.052        -0.0213808   
26.053        -0.0213819   
26.054        -0.0213831   
26.055        -0.0213843   
26.056        -0.0213854   
26.057        -0.0213866   
26.058        -0.0213878   
26.059        -0.0213889   
26.06         -0.0213901   
26.061        -0.0213912   
26.062        -0.0213924   
26.063        -0.0213935   
26.064        -0.0213947   
26.065        -0.0213959   
26.066        -0.021397    
26.067        -0.0213982   
26.068        -0.0213993   
26.069        -0.0214005   