# Probe 0 (0.5 0.5 0.05)
# Time        0            
25.001        (0.969287 1.91334e-05 0)
25.002        (0.969288 1.9135e-05 0)
25.003        (0.969288 1.91373e-05 0)
25.004        (0.969289 1.91398e-05 0)
25.005        (0.969289 1.91421e-05 0)
25.006        (0.969289 1.91442e-05 0)
25.007        (0.96929 1.9146e-05 0)
25.008        (0.96929 1.91474e-05 0)
25.009        (0.969291 1.91485e-05 0)
25.01         (0.969291 1.91492e-05 0)
25.011        (0.969292 1.91497e-05 0)
25.012        (0.969292 1.915e-05 0)
25.013        (0.969292 1.91501e-05 0)
25.014        (0.969293 1.915e-05 0)
25.015        (0.969293 1.91497e-05 0)
25.016        (0.969294 1.91494e-05 0)
25.017        (0.969294 1.91489e-05 0)
25.018        (0.969295 1.91484e-05 0)
25.019        (0.969295 1.91478e-05 0)
25.02         (0.969295 1.91472e-05 0)
25.021        (0.969296 1.91466e-05 0)
25.022        (0.969296 1.91459e-05 0)
25.023        (0.969297 1.91452e-05 0)
25.024        (0.969297 1.91444e-05 0)
25.025        (0.969298 1.91437e-05 0)
25.026        (0.969298 1.9143e-05 0)
25.027        (0.969298 1.91422e-05 0)
25.028        (0.969299 1.91415e-05 0)
25.029        (0.969299 1.91407e-05 0)
25.03         (0.9693 1.914e-05 0)
25.031        (0.9693 1.91393e-05 0)
25.032        (0.969301 1.91385e-05 0)
25.033        (0.969301 1.91378e-05 0)
25.034        (0.969301 1.9137e-05 0)
25.035        (0.969302 1.91363e-05 0)
25.036        (0.969302 1.91356e-05 0)
25.037        (0.969303 1.91348e-05 0)
25.038        (0.969303 1.91341e-05 0)
25.039        (0.969304 1.91334e-05 0)
25.04         (0.969304 1.91327e-05 0)
25.041        (0.969304 1.9132e-05 0)
25.042        (0.969305 1.91313e-05 0)
25.043        (0.969305 1.91305e-05 0)
25.044        (0.969306 1.91298e-05 0)
25.045        (0.969306 1.91291e-05 0)
25.046        (0.969307 1.91284e-05 0)
25.047        (0.969307 1.91277e-05 0)
25.048        (0.969307 1.9127e-05 0)
25.049        (0.969308 1.91263e-05 0)
25.05         (0.969308 1.91256e-05 0)
25.051        (0.969309 1.91249e-05 0)
25.052        (0.969309 1.91242e-05 0)
25.053        (0.96931 1.91235e-05 0)
25.054        (0.96931 1.91228e-05 0)
25.055        (0.96931 1.91221e-05 0)
25.056        (0.969311 1.91214e-05 0)
25.057        (0.969311 1.91207e-05 0)
25.058        (0.969312 1.912e-05 0)
25.059        (0.969312 1.91193e-05 0)
25.06         (0.969313 1.91186e-05 0)
25.061        (0.969313 1.91179e-05 0)
25.062        (0.969313 1.91172e-05 0)
25.063        (0.969314 1.91165e-05 0)
25.064        (0.969314 1.91158e-05 0)
25.065        (0.969315 1.91151e-05 0)
25.066        (0.969315 1.91144e-05 0)
25.067        (0.969315 1.91137e-05 0)
25.068        (0.969316 1.9113e-05 0)
25.069        (0.969316 1.91123e-05 0)
25.07         (0.969317 1.91116e-05 0)
25.071        (0.969317 1.91108e-05 0)
25.072        (0.969318 1.91101e-05 0)
25.073        (0.969318 1.91094e-05 0)
25.074        (0.969318 1.91087e-05 0)
25.075        (0.969319 1.9108e-05 0)
25.076        (0.969319 1.91073e-05 0)
25.077        (0.96932 1.91066e-05 0)
25.078        (0.96932 1.91059e-05 0)
25.079        (0.969321 1.91052e-05 0)
25.08         (0.969321 1.91045e-05 0)
25.081        (0.969321 1.91038e-05 0)
25.082        (0.969322 1.91031e-05 0)
25.083        (0.969322 1.91023e-05 0)
25.084        (0.969323 1.91016e-05 0)
25.085        (0.969323 1.91009e-05 0)
25.086        (0.969324 1.91002e-05 0)
25.087        (0.969324 1.90995e-05 0)
25.088        (0.969324 1.90988e-05 0)
25.089        (0.969325 1.90981e-05 0)
25.09         (0.969325 1.90974e-05 0)
25.091        (0.969326 1.90967e-05 0)
25.092        (0.969326 1.90959e-05 0)
25.093        (0.969327 1.90952e-05 0)
25.094        (0.969327 1.90945e-05 0)
25.095        (0.969327 1.90938e-05 0)
25.096        (0.969328 1.90931e-05 0)
25.097        (0.969328 1.90924e-05 0)
25.098        (0.969329 1.90917e-05 0)
25.099        (0.969329 1.9091e-05 0)
25.1          (0.96933 1.90902e-05 0)
25.101        (0.96933 1.90895e-05 0)
25.102        (0.96933 1.90888e-05 0)
25.103        (0.969331 1.90881e-05 0)
25.104        (0.969331 1.90874e-05 0)
25.105        (0.969332 1.90867e-05 0)
25.106        (0.969332 1.9086e-05 0)
25.107        (0.969333 1.90852e-05 0)
25.108        (0.969333 1.90845e-05 0)
25.109        (0.969333 1.90838e-05 0)
25.11         (0.969334 1.90831e-05 0)
25.111        (0.969334 1.90824e-05 0)
25.112        (0.969335 1.90817e-05 0)
25.113        (0.969335 1.90809e-05 0)
25.114        (0.969336 1.90802e-05 0)
25.115        (0.969336 1.90795e-05 0)
25.116        (0.969336 1.90788e-05 0)
25.117        (0.969337 1.90781e-05 0)
25.118        (0.969337 1.90774e-05 0)
25.119        (0.969338 1.90766e-05 0)
25.12         (0.969338 1.90759e-05 0)
25.121        (0.969339 1.90752e-05 0)
25.122        (0.969339 1.90745e-05 0)
25.123        (0.969339 1.90738e-05 0)
25.124        (0.96934 1.9073e-05 0)
25.125        (0.96934 1.90723e-05 0)
25.126        (0.969341 1.90716e-05 0)
25.127        (0.969341 1.90709e-05 0)
25.128        (0.969342 1.90702e-05 0)
25.129        (0.969342 1.90695e-05 0)
25.13         (0.969342 1.90687e-05 0)
25.131        (0.969343 1.9068e-05 0)
25.132        (0.969343 1.90673e-05 0)
25.133        (0.969344 1.90666e-05 0)
25.134        (0.969344 1.90659e-05 0)
25.135        (0.969345 1.90651e-05 0)
25.136        (0.969345 1.90644e-05 0)
25.137        (0.969345 1.90637e-05 0)
25.138        (0.969346 1.9063e-05 0)
25.139        (0.969346 1.90623e-05 0)
25.14         (0.969347 1.90615e-05 0)
25.141        (0.969347 1.90608e-05 0)
25.142        (0.969348 1.90601e-05 0)
25.143        (0.969348 1.90594e-05 0)
25.144        (0.969348 1.90587e-05 0)
25.145        (0.969349 1.90579e-05 0)
25.146        (0.969349 1.90572e-05 0)
25.147        (0.96935 1.90565e-05 0)
25.148        (0.96935 1.90558e-05 0)
25.149        (0.969351 1.9055e-05 0)
25.15         (0.969351 1.90543e-05 0)
25.151        (0.969351 1.90536e-05 0)
25.152        (0.969352 1.90529e-05 0)
25.153        (0.969352 1.90522e-05 0)
25.154        (0.969353 1.90514e-05 0)
25.155        (0.969353 1.90507e-05 0)
25.156        (0.969354 1.905e-05 0)
25.157        (0.969354 1.90493e-05 0)
25.158        (0.969354 1.90485e-05 0)
25.159        (0.969355 1.90478e-05 0)
25.16         (0.969355 1.90471e-05 0)
25.161        (0.969356 1.90464e-05 0)
25.162        (0.969356 1.90457e-05 0)
25.163        (0.969357 1.90449e-05 0)
25.164        (0.969357 1.90442e-05 0)
25.165        (0.969357 1.90435e-05 0)
25.166        (0.969358 1.90428e-05 0)
25.167        (0.969358 1.9042e-05 0)
25.168        (0.969359 1.90413e-05 0)
25.169        (0.969359 1.90406e-05 0)
25.17         (0.96936 1.90399e-05 0)
25.171        (0.96936 1.90391e-05 0)
25.172        (0.96936 1.90384e-05 0)
25.173        (0.969361 1.90377e-05 0)
25.174        (0.969361 1.9037e-05 0)
25.175        (0.969362 1.90363e-05 0)
25.176        (0.969362 1.90355e-05 0)
25.177        (0.969363 1.90348e-05 0)
25.178        (0.969363 1.90341e-05 0)
25.179        (0.969363 1.90334e-05 0)
25.18         (0.969364 1.90327e-05 0)
25.181        (0.969364 1.90319e-05 0)
25.182        (0.969365 1.90312e-05 0)
25.183        (0.969365 1.90305e-05 0)
25.184        (0.969366 1.90298e-05 0)
25.185        (0.969366 1.90291e-05 0)
25.186        (0.969366 1.90283e-05 0)
25.187        (0.969367 1.90276e-05 0)
25.188        (0.969367 1.90269e-05 0)
25.189        (0.969368 1.90262e-05 0)
25.19         (0.969368 1.90254e-05 0)
25.191        (0.969369 1.90247e-05 0)
25.192        (0.969369 1.9024e-05 0)
25.193        (0.969369 1.90233e-05 0)
25.194        (0.96937 1.90226e-05 0)
25.195        (0.96937 1.90219e-05 0)
25.196        (0.969371 1.90211e-05 0)
25.197        (0.969371 1.90204e-05 0)
25.198        (0.969372 1.90197e-05 0)
25.199        (0.969372 1.9019e-05 0)
25.2          (0.969373 1.90183e-05 0)
25.201        (0.969373 1.90175e-05 0)
25.202        (0.969373 1.90168e-05 0)
25.203        (0.969374 1.90161e-05 0)
25.204        (0.969374 1.90154e-05 0)
25.205        (0.969375 1.90147e-05 0)
25.206        (0.969375 1.90139e-05 0)
25.207        (0.969376 1.90132e-05 0)
25.208        (0.969376 1.90125e-05 0)
25.209        (0.969376 1.90118e-05 0)
25.21         (0.969377 1.90111e-05 0)
25.211        (0.969377 1.90104e-05 0)
25.212        (0.969378 1.90096e-05 0)
25.213        (0.969378 1.90089e-05 0)
25.214        (0.969379 1.90082e-05 0)
25.215        (0.969379 1.90075e-05 0)
25.216        (0.969379 1.90068e-05 0)
25.217        (0.96938 1.90061e-05 0)
25.218        (0.96938 1.90054e-05 0)
25.219        (0.969381 1.90046e-05 0)
25.22         (0.969381 1.90039e-05 0)
25.221        (0.969382 1.90032e-05 0)
25.222        (0.969382 1.90025e-05 0)
25.223        (0.969382 1.90018e-05 0)
25.224        (0.969383 1.90011e-05 0)
25.225        (0.969383 1.90003e-05 0)
25.226        (0.969384 1.89996e-05 0)
25.227        (0.969384 1.89989e-05 0)
25.228        (0.969385 1.89982e-05 0)
25.229        (0.969385 1.89975e-05 0)
25.23         (0.969385 1.89968e-05 0)
25.231        (0.969386 1.89961e-05 0)
25.232        (0.969386 1.89953e-05 0)
25.233        (0.969387 1.89946e-05 0)
25.234        (0.969387 1.89939e-05 0)
25.235        (0.969388 1.89932e-05 0)
25.236        (0.969388 1.89925e-05 0)
25.237        (0.969388 1.89918e-05 0)
25.238        (0.969389 1.89911e-05 0)
25.239        (0.969389 1.89904e-05 0)
25.24         (0.96939 1.89896e-05 0)
25.241        (0.96939 1.89889e-05 0)
25.242        (0.969391 1.89882e-05 0)
25.243        (0.969391 1.89875e-05 0)
25.244        (0.969391 1.89868e-05 0)
25.245        (0.969392 1.89861e-05 0)
25.246        (0.969392 1.89853e-05 0)
25.247        (0.969393 1.89846e-05 0)
25.248        (0.969393 1.89839e-05 0)
25.249        (0.969394 1.89832e-05 0)
25.25         (0.969394 1.89825e-05 0)
25.251        (0.969395 1.89818e-05 0)
25.252        (0.969395 1.89811e-05 0)
25.253        (0.969395 1.89804e-05 0)
25.254        (0.969396 1.89796e-05 0)
25.255        (0.969396 1.89789e-05 0)
25.256        (0.969397 1.89782e-05 0)
25.257        (0.969397 1.89775e-05 0)
25.258        (0.969398 1.89768e-05 0)
25.259        (0.969398 1.89761e-05 0)
25.26         (0.969398 1.89754e-05 0)
25.261        (0.969399 1.89746e-05 0)
25.262        (0.969399 1.89739e-05 0)
25.263        (0.9694 1.89732e-05 0)
25.264        (0.9694 1.89725e-05 0)
25.265        (0.969401 1.89718e-05 0)
25.266        (0.969401 1.89711e-05 0)
25.267        (0.969401 1.89704e-05 0)
25.268        (0.969402 1.89697e-05 0)
25.269        (0.969402 1.89689e-05 0)
25.27         (0.969403 1.89682e-05 0)
25.271        (0.969403 1.89675e-05 0)
25.272        (0.969404 1.89668e-05 0)
25.273        (0.969404 1.89661e-05 0)
25.274        (0.969404 1.89654e-05 0)
25.275        (0.969405 1.89647e-05 0)
25.276        (0.969405 1.89639e-05 0)
25.277        (0.969406 1.89632e-05 0)
25.278        (0.969406 1.89625e-05 0)
25.279        (0.969407 1.89618e-05 0)
25.28         (0.969407 1.89611e-05 0)
25.281        (0.969407 1.89604e-05 0)
25.282        (0.969408 1.89597e-05 0)
25.283        (0.969408 1.8959e-05 0)
25.284        (0.969409 1.89582e-05 0)
25.285        (0.969409 1.89575e-05 0)
25.286        (0.96941 1.89568e-05 0)
25.287        (0.96941 1.89561e-05 0)
25.288        (0.969411 1.89554e-05 0)
25.289        (0.969411 1.89547e-05 0)
25.29         (0.969411 1.8954e-05 0)
25.291        (0.969412 1.89533e-05 0)
25.292        (0.969412 1.89525e-05 0)
25.293        (0.969413 1.89518e-05 0)
25.294        (0.969413 1.89511e-05 0)
25.295        (0.969414 1.89504e-05 0)
25.296        (0.969414 1.89497e-05 0)
25.297        (0.969414 1.8949e-05 0)
25.298        (0.969415 1.89483e-05 0)
25.299        (0.969415 1.89475e-05 0)
25.3          (0.969416 1.89468e-05 0)
25.301        (0.969416 1.89461e-05 0)
25.302        (0.969417 1.89454e-05 0)
25.303        (0.969417 1.89447e-05 0)
25.304        (0.969417 1.8944e-05 0)
25.305        (0.969418 1.89433e-05 0)
25.306        (0.969418 1.89426e-05 0)
25.307        (0.969419 1.89418e-05 0)
25.308        (0.969419 1.89411e-05 0)
25.309        (0.96942 1.89404e-05 0)
25.31         (0.96942 1.89397e-05 0)
25.311        (0.96942 1.8939e-05 0)
25.312        (0.969421 1.89383e-05 0)
25.313        (0.969421 1.89376e-05 0)
25.314        (0.969422 1.89369e-05 0)
25.315        (0.969422 1.89361e-05 0)
25.316        (0.969423 1.89354e-05 0)
25.317        (0.969423 1.89347e-05 0)
25.318        (0.969424 1.8934e-05 0)
25.319        (0.969424 1.89333e-05 0)
25.32         (0.969424 1.89326e-05 0)
25.321        (0.969425 1.89319e-05 0)
25.322        (0.969425 1.89312e-05 0)
25.323        (0.969426 1.89304e-05 0)
25.324        (0.969426 1.89297e-05 0)
25.325        (0.969427 1.8929e-05 0)
25.326        (0.969427 1.89283e-05 0)
25.327        (0.969427 1.89276e-05 0)
25.328        (0.969428 1.89269e-05 0)
25.329        (0.969428 1.89262e-05 0)
25.33         (0.969429 1.89255e-05 0)
25.331        (0.969429 1.89247e-05 0)
25.332        (0.96943 1.8924e-05 0)
25.333        (0.96943 1.89233e-05 0)
25.334        (0.96943 1.89226e-05 0)
25.335        (0.969431 1.89219e-05 0)
25.336        (0.969431 1.89212e-05 0)
25.337        (0.969432 1.89205e-05 0)
25.338        (0.969432 1.89198e-05 0)
25.339        (0.969433 1.89191e-05 0)
25.34         (0.969433 1.89183e-05 0)
25.341        (0.969434 1.89176e-05 0)
25.342        (0.969434 1.89169e-05 0)
25.343        (0.969434 1.89162e-05 0)
25.344        (0.969435 1.89155e-05 0)
25.345        (0.969435 1.89148e-05 0)
25.346        (0.969436 1.89141e-05 0)
25.347        (0.969436 1.89134e-05 0)
25.348        (0.969437 1.89127e-05 0)
25.349        (0.969437 1.89119e-05 0)
25.35         (0.969437 1.89112e-05 0)
25.351        (0.969438 1.89105e-05 0)
25.352        (0.969438 1.89098e-05 0)
25.353        (0.969439 1.89091e-05 0)
25.354        (0.969439 1.89084e-05 0)
25.355        (0.96944 1.89077e-05 0)
25.356        (0.96944 1.8907e-05 0)
25.357        (0.96944 1.89063e-05 0)
25.358        (0.969441 1.89056e-05 0)
25.359        (0.969441 1.89049e-05 0)
25.36         (0.969442 1.89042e-05 0)
25.361        (0.969442 1.89034e-05 0)
25.362        (0.969443 1.89027e-05 0)
25.363        (0.969443 1.8902e-05 0)
25.364        (0.969444 1.89013e-05 0)
25.365        (0.969444 1.89006e-05 0)
25.366        (0.969444 1.88999e-05 0)
25.367        (0.969445 1.88992e-05 0)
25.368        (0.969445 1.88985e-05 0)
25.369        (0.969446 1.88977e-05 0)
25.37         (0.969446 1.8897e-05 0)
25.371        (0.969447 1.88963e-05 0)
25.372        (0.969447 1.88956e-05 0)
25.373        (0.969447 1.88949e-05 0)
25.374        (0.969448 1.88942e-05 0)
25.375        (0.969448 1.88935e-05 0)
25.376        (0.969449 1.88928e-05 0)
25.377        (0.969449 1.88921e-05 0)
25.378        (0.96945 1.88914e-05 0)
25.379        (0.96945 1.88907e-05 0)
25.38         (0.96945 1.88899e-05 0)
25.381        (0.969451 1.88892e-05 0)
25.382        (0.969451 1.88885e-05 0)
25.383        (0.969452 1.88878e-05 0)
25.384        (0.969452 1.88871e-05 0)
25.385        (0.969453 1.88864e-05 0)
25.386        (0.969453 1.88857e-05 0)
25.387        (0.969454 1.8885e-05 0)
25.388        (0.969454 1.88843e-05 0)
25.389        (0.969454 1.88836e-05 0)
25.39         (0.969455 1.88828e-05 0)
25.391        (0.969455 1.88821e-05 0)
25.392        (0.969456 1.88814e-05 0)
25.393        (0.969456 1.88807e-05 0)
25.394        (0.969457 1.888e-05 0)
25.395        (0.969457 1.88794e-05 0)
25.396        (0.969457 1.88787e-05 0)
25.397        (0.969458 1.8878e-05 0)
25.398        (0.969458 1.88774e-05 0)
25.399        (0.969459 1.88767e-05 0)
25.4          (0.969459 1.8876e-05 0)
25.401        (0.96946 1.88753e-05 0)
25.402        (0.96946 1.88747e-05 0)
25.403        (0.96946 1.8874e-05 0)
25.404        (0.969461 1.88733e-05 0)
25.405        (0.969461 1.88726e-05 0)
25.406        (0.969462 1.88719e-05 0)
25.407        (0.969462 1.88712e-05 0)
25.408        (0.969463 1.88705e-05 0)
25.409        (0.969463 1.88698e-05 0)
25.41         (0.969463 1.88691e-05 0)
25.411        (0.969464 1.88684e-05 0)
25.412        (0.969464 1.88677e-05 0)
25.413        (0.969465 1.8867e-05 0)
25.414        (0.969465 1.88663e-05 0)
25.415        (0.969466 1.88656e-05 0)
25.416        (0.969466 1.88649e-05 0)
25.417        (0.969466 1.88642e-05 0)
25.418        (0.969467 1.88635e-05 0)
25.419        (0.969467 1.88628e-05 0)
25.42         (0.969468 1.88621e-05 0)
25.421        (0.969468 1.88614e-05 0)
25.422        (0.969469 1.88608e-05 0)
25.423        (0.969469 1.88601e-05 0)
25.424        (0.96947 1.88594e-05 0)
25.425        (0.96947 1.88587e-05 0)
25.426        (0.96947 1.8858e-05 0)
25.427        (0.969471 1.88573e-05 0)
25.428        (0.969471 1.88566e-05 0)
25.429        (0.969472 1.88559e-05 0)
25.43         (0.969472 1.88552e-05 0)
25.431        (0.969473 1.88545e-05 0)
25.432        (0.969473 1.88538e-05 0)
25.433        (0.969473 1.88531e-05 0)
25.434        (0.969474 1.88524e-05 0)
25.435        (0.969474 1.88517e-05 0)
25.436        (0.969475 1.8851e-05 0)
25.437        (0.969475 1.88503e-05 0)
25.438        (0.969476 1.88496e-05 0)
25.439        (0.969476 1.88489e-05 0)
25.44         (0.969476 1.88482e-05 0)
25.441        (0.969477 1.88475e-05 0)
25.442        (0.969477 1.88468e-05 0)
25.443        (0.969478 1.88461e-05 0)
25.444        (0.969478 1.88454e-05 0)
25.445        (0.969479 1.88447e-05 0)
25.446        (0.969479 1.8844e-05 0)
25.447        (0.969479 1.88433e-05 0)
25.448        (0.96948 1.88426e-05 0)
25.449        (0.96948 1.88419e-05 0)
25.45         (0.969481 1.88412e-05 0)
25.451        (0.969481 1.88405e-05 0)
25.452        (0.969482 1.88398e-05 0)
25.453        (0.969482 1.88391e-05 0)
25.454        (0.969483 1.88384e-05 0)
25.455        (0.969483 1.88377e-05 0)
25.456        (0.969483 1.8837e-05 0)
25.457        (0.969484 1.88363e-05 0)
25.458        (0.969484 1.88356e-05 0)
25.459        (0.969485 1.88349e-05 0)
25.46         (0.969485 1.88342e-05 0)
25.461        (0.969486 1.88335e-05 0)
25.462        (0.969486 1.88328e-05 0)
25.463        (0.969486 1.88322e-05 0)
25.464        (0.969487 1.88314e-05 0)
25.465        (0.969487 1.88307e-05 0)
25.466        (0.969488 1.883e-05 0)
25.467        (0.969488 1.88294e-05 0)
25.468        (0.969489 1.88287e-05 0)
25.469        (0.969489 1.8828e-05 0)
25.47         (0.969489 1.88273e-05 0)
25.471        (0.96949 1.88266e-05 0)
25.472        (0.96949 1.88259e-05 0)
25.473        (0.969491 1.88252e-05 0)
25.474        (0.969491 1.88245e-05 0)
25.475        (0.969492 1.88238e-05 0)
25.476        (0.969492 1.88231e-05 0)
25.477        (0.969493 1.88224e-05 0)
25.478        (0.969493 1.88217e-05 0)
25.479        (0.969493 1.8821e-05 0)
25.48         (0.969494 1.88203e-05 0)
25.481        (0.969494 1.88196e-05 0)
25.482        (0.969495 1.88189e-05 0)
25.483        (0.969495 1.88182e-05 0)
25.484        (0.969496 1.88175e-05 0)
25.485        (0.969496 1.88168e-05 0)
25.486        (0.969496 1.88161e-05 0)
25.487        (0.969497 1.88154e-05 0)
25.488        (0.969497 1.88147e-05 0)
25.489        (0.969498 1.8814e-05 0)
25.49         (0.969498 1.88133e-05 0)
25.491        (0.969499 1.88126e-05 0)
25.492        (0.969499 1.88119e-05 0)
25.493        (0.9695 1.88112e-05 0)
25.494        (0.9695 1.88105e-05 0)
25.495        (0.9695 1.88098e-05 0)
25.496        (0.969501 1.88092e-05 0)
25.497        (0.969501 1.88085e-05 0)
25.498        (0.969502 1.88078e-05 0)
25.499        (0.969502 1.88071e-05 0)
25.5          (0.969503 1.88064e-05 0)
25.501        (0.969503 1.88057e-05 0)
25.502        (0.969503 1.8805e-05 0)
25.503        (0.969504 1.88043e-05 0)
25.504        (0.969504 1.88036e-05 0)
25.505        (0.969505 1.88029e-05 0)
25.506        (0.969505 1.88022e-05 0)
25.507        (0.969506 1.88015e-05 0)
25.508        (0.969506 1.88008e-05 0)
25.509        (0.969506 1.88001e-05 0)
25.51         (0.969507 1.87994e-05 0)
25.511        (0.969507 1.87987e-05 0)
25.512        (0.969508 1.8798e-05 0)
25.513        (0.969508 1.87973e-05 0)
25.514        (0.969509 1.87966e-05 0)
25.515        (0.969509 1.87959e-05 0)
25.516        (0.96951 1.87952e-05 0)
25.517        (0.96951 1.87945e-05 0)
25.518        (0.96951 1.87939e-05 0)
25.519        (0.969511 1.87931e-05 0)
25.52         (0.969511 1.87925e-05 0)
25.521        (0.969512 1.87918e-05 0)
25.522        (0.969512 1.87911e-05 0)
25.523        (0.969513 1.87904e-05 0)
25.524        (0.969513 1.87897e-05 0)
25.525        (0.969513 1.8789e-05 0)
25.526        (0.969514 1.87883e-05 0)
25.527        (0.969514 1.87876e-05 0)
25.528        (0.969515 1.87869e-05 0)
25.529        (0.969515 1.87862e-05 0)
25.53         (0.969516 1.87855e-05 0)
25.531        (0.969516 1.87848e-05 0)
25.532        (0.969517 1.87841e-05 0)
25.533        (0.969517 1.87834e-05 0)
25.534        (0.969517 1.87827e-05 0)
25.535        (0.969518 1.8782e-05 0)
25.536        (0.969518 1.87813e-05 0)
25.537        (0.969519 1.87806e-05 0)
25.538        (0.969519 1.87799e-05 0)
25.539        (0.96952 1.87792e-05 0)
25.54         (0.96952 1.87786e-05 0)
25.541        (0.96952 1.87779e-05 0)
25.542        (0.969521 1.87772e-05 0)
25.543        (0.969521 1.87765e-05 0)
25.544        (0.969522 1.87758e-05 0)
25.545        (0.969522 1.87751e-05 0)
25.546        (0.969523 1.87744e-05 0)
25.547        (0.969523 1.87737e-05 0)
25.548        (0.969524 1.8773e-05 0)
25.549        (0.969524 1.87723e-05 0)
25.55         (0.969524 1.87716e-05 0)
25.551        (0.969525 1.87709e-05 0)
25.552        (0.969525 1.87702e-05 0)
25.553        (0.969526 1.87695e-05 0)
25.554        (0.969526 1.87688e-05 0)
25.555        (0.969527 1.87681e-05 0)
25.556        (0.969527 1.87674e-05 0)
25.557        (0.969527 1.87668e-05 0)
25.558        (0.969528 1.87661e-05 0)
25.559        (0.969528 1.87654e-05 0)
25.56         (0.969529 1.87647e-05 0)
25.561        (0.969529 1.8764e-05 0)
25.562        (0.96953 1.87633e-05 0)
25.563        (0.96953 1.87626e-05 0)
25.564        (0.969531 1.87619e-05 0)
25.565        (0.969531 1.87612e-05 0)
25.566        (0.969531 1.87605e-05 0)
25.567        (0.969532 1.87598e-05 0)
25.568        (0.969532 1.87591e-05 0)
25.569        (0.969533 1.87584e-05 0)
25.57         (0.969533 1.87577e-05 0)
25.571        (0.969534 1.8757e-05 0)
25.572        (0.969534 1.87564e-05 0)
25.573        (0.969534 1.87557e-05 0)
25.574        (0.969535 1.8755e-05 0)
25.575        (0.969535 1.87543e-05 0)
25.576        (0.969536 1.87536e-05 0)
25.577        (0.969536 1.87529e-05 0)
25.578        (0.969537 1.87522e-05 0)
25.579        (0.969537 1.87515e-05 0)
25.58         (0.969538 1.87508e-05 0)
25.581        (0.969538 1.87501e-05 0)
25.582        (0.969538 1.87494e-05 0)
25.583        (0.969539 1.87487e-05 0)
25.584        (0.969539 1.8748e-05 0)
25.585        (0.96954 1.87474e-05 0)
25.586        (0.96954 1.87467e-05 0)
25.587        (0.969541 1.8746e-05 0)
25.588        (0.969541 1.87453e-05 0)
25.589        (0.969542 1.87446e-05 0)
25.59         (0.969542 1.87439e-05 0)
25.591        (0.969542 1.87432e-05 0)
25.592        (0.969543 1.87425e-05 0)
25.593        (0.969543 1.87418e-05 0)
25.594        (0.969544 1.87411e-05 0)
25.595        (0.969544 1.87404e-05 0)
25.596        (0.969545 1.87397e-05 0)
25.597        (0.969545 1.8739e-05 0)
25.598        (0.969545 1.87383e-05 0)
25.599        (0.969546 1.87377e-05 0)
25.6          (0.969546 1.8737e-05 0)
25.601        (0.969547 1.87363e-05 0)
25.602        (0.969547 1.87356e-05 0)
25.603        (0.969548 1.87349e-05 0)
25.604        (0.969548 1.87342e-05 0)
25.605        (0.969549 1.87335e-05 0)
25.606        (0.969549 1.87328e-05 0)
25.607        (0.969549 1.87321e-05 0)
25.608        (0.96955 1.87314e-05 0)
25.609        (0.96955 1.87307e-05 0)
25.61         (0.969551 1.87301e-05 0)
25.611        (0.969551 1.87293e-05 0)
25.612        (0.969552 1.87287e-05 0)
25.613        (0.969552 1.8728e-05 0)
25.614        (0.969552 1.87273e-05 0)
25.615        (0.969553 1.87266e-05 0)
25.616        (0.969553 1.87259e-05 0)
25.617        (0.969554 1.87252e-05 0)
25.618        (0.969554 1.87245e-05 0)
25.619        (0.969555 1.87238e-05 0)
25.62         (0.969555 1.87231e-05 0)
25.621        (0.969556 1.87224e-05 0)
25.622        (0.969556 1.87217e-05 0)
25.623        (0.969556 1.87211e-05 0)
25.624        (0.969557 1.87204e-05 0)
25.625        (0.969557 1.87197e-05 0)
25.626        (0.969558 1.8719e-05 0)
25.627        (0.969558 1.87183e-05 0)
25.628        (0.969559 1.87176e-05 0)
25.629        (0.969559 1.87169e-05 0)
25.63         (0.96956 1.87162e-05 0)
25.631        (0.96956 1.87155e-05 0)
25.632        (0.96956 1.87148e-05 0)
25.633        (0.969561 1.87141e-05 0)
25.634        (0.969561 1.87135e-05 0)
25.635        (0.969562 1.87128e-05 0)
25.636        (0.969562 1.87121e-05 0)
25.637        (0.969563 1.87114e-05 0)
25.638        (0.969563 1.87107e-05 0)
25.639        (0.969563 1.871e-05 0)
25.64         (0.969564 1.87093e-05 0)
25.641        (0.969564 1.87086e-05 0)
25.642        (0.969565 1.87079e-05 0)
25.643        (0.969565 1.87072e-05 0)
25.644        (0.969566 1.87066e-05 0)
25.645        (0.969566 1.87059e-05 0)
25.646        (0.969567 1.87052e-05 0)
25.647        (0.969567 1.87045e-05 0)
25.648        (0.969567 1.87038e-05 0)
25.649        (0.969568 1.87031e-05 0)
25.65         (0.969568 1.87024e-05 0)
25.651        (0.969569 1.87017e-05 0)
25.652        (0.969569 1.8701e-05 0)
25.653        (0.96957 1.87003e-05 0)
25.654        (0.96957 1.86997e-05 0)
25.655        (0.969571 1.8699e-05 0)
25.656        (0.969571 1.86983e-05 0)
25.657        (0.969571 1.86976e-05 0)
25.658        (0.969572 1.86969e-05 0)
25.659        (0.969572 1.86962e-05 0)
25.66         (0.969573 1.86955e-05 0)
25.661        (0.969573 1.86948e-05 0)
25.662        (0.969574 1.86941e-05 0)
25.663        (0.969574 1.86935e-05 0)
25.664        (0.969574 1.86928e-05 0)
25.665        (0.969575 1.86921e-05 0)
25.666        (0.969575 1.86914e-05 0)
25.667        (0.969576 1.86907e-05 0)
25.668        (0.969576 1.869e-05 0)
25.669        (0.969577 1.86893e-05 0)
25.67         (0.969577 1.86886e-05 0)
25.671        (0.969578 1.86879e-05 0)
25.672        (0.969578 1.86873e-05 0)
25.673        (0.969578 1.86866e-05 0)
25.674        (0.969579 1.86859e-05 0)
25.675        (0.969579 1.86852e-05 0)
25.676        (0.96958 1.86845e-05 0)
25.677        (0.96958 1.86838e-05 0)
25.678        (0.969581 1.86831e-05 0)
25.679        (0.969581 1.86824e-05 0)
25.68         (0.969582 1.86817e-05 0)
25.681        (0.969582 1.86811e-05 0)
25.682        (0.969582 1.86804e-05 0)
25.683        (0.969583 1.86797e-05 0)
25.684        (0.969583 1.8679e-05 0)
25.685        (0.969584 1.86783e-05 0)
25.686        (0.969584 1.86776e-05 0)
25.687        (0.969585 1.86769e-05 0)
25.688        (0.969585 1.86762e-05 0)
25.689        (0.969586 1.86756e-05 0)
25.69         (0.969586 1.86749e-05 0)
25.691        (0.969586 1.86742e-05 0)
25.692        (0.969587 1.86735e-05 0)
25.693        (0.969587 1.86728e-05 0)
25.694        (0.969588 1.86721e-05 0)
25.695        (0.969588 1.86714e-05 0)
25.696        (0.969589 1.86707e-05 0)
25.697        (0.969589 1.86701e-05 0)
25.698        (0.969589 1.86694e-05 0)
25.699        (0.96959 1.86687e-05 0)
25.7          (0.96959 1.8668e-05 0)
25.701        (0.969591 1.86673e-05 0)
25.702        (0.969591 1.86666e-05 0)
25.703        (0.969592 1.86659e-05 0)
25.704        (0.969592 1.86653e-05 0)
25.705        (0.969593 1.86646e-05 0)
25.706        (0.969593 1.86639e-05 0)
25.707        (0.969593 1.86632e-05 0)
25.708        (0.969594 1.86625e-05 0)
25.709        (0.969594 1.86618e-05 0)
25.71         (0.969595 1.86611e-05 0)
25.711        (0.969595 1.86604e-05 0)
25.712        (0.969596 1.86598e-05 0)
25.713        (0.969596 1.86591e-05 0)
25.714        (0.969597 1.86584e-05 0)
25.715        (0.969597 1.86577e-05 0)
25.716        (0.969597 1.8657e-05 0)
25.717        (0.969598 1.86563e-05 0)
25.718        (0.969598 1.86556e-05 0)
25.719        (0.969599 1.86549e-05 0)
25.72         (0.969599 1.86543e-05 0)
25.721        (0.9696 1.86536e-05 0)
25.722        (0.9696 1.86529e-05 0)
25.723        (0.969601 1.86522e-05 0)
25.724        (0.969601 1.86515e-05 0)
25.725        (0.969601 1.86508e-05 0)
25.726        (0.969602 1.86501e-05 0)
25.727        (0.969602 1.86495e-05 0)
25.728        (0.969603 1.86488e-05 0)
25.729        (0.969603 1.86481e-05 0)
25.73         (0.969604 1.86474e-05 0)
25.731        (0.969604 1.86467e-05 0)
25.732        (0.969605 1.8646e-05 0)
25.733        (0.969605 1.86453e-05 0)
25.734        (0.969605 1.86447e-05 0)
25.735        (0.969606 1.8644e-05 0)
25.736        (0.969606 1.86433e-05 0)
25.737        (0.969607 1.86426e-05 0)
25.738        (0.969607 1.86419e-05 0)
25.739        (0.969608 1.86412e-05 0)
25.74         (0.969608 1.86405e-05 0)
25.741        (0.969608 1.86399e-05 0)
25.742        (0.969609 1.86392e-05 0)
25.743        (0.969609 1.86385e-05 0)
25.744        (0.96961 1.86378e-05 0)
25.745        (0.96961 1.86371e-05 0)
25.746        (0.969611 1.86364e-05 0)
25.747        (0.969611 1.86358e-05 0)
25.748        (0.969612 1.86351e-05 0)
25.749        (0.969612 1.86344e-05 0)
25.75         (0.969612 1.86337e-05 0)
25.751        (0.969613 1.8633e-05 0)
25.752        (0.969613 1.86323e-05 0)
25.753        (0.969614 1.86316e-05 0)
25.754        (0.969614 1.8631e-05 0)
25.755        (0.969615 1.86303e-05 0)
25.756        (0.969615 1.86296e-05 0)
25.757        (0.969616 1.86289e-05 0)
25.758        (0.969616 1.86282e-05 0)
25.759        (0.969616 1.86275e-05 0)
25.76         (0.969617 1.86269e-05 0)
25.761        (0.969617 1.86262e-05 0)
25.762        (0.969618 1.86255e-05 0)
25.763        (0.969618 1.86248e-05 0)
25.764        (0.969619 1.86241e-05 0)
25.765        (0.969619 1.86234e-05 0)
25.766        (0.96962 1.86227e-05 0)
25.767        (0.96962 1.86221e-05 0)
25.768        (0.96962 1.86214e-05 0)
25.769        (0.969621 1.86207e-05 0)
25.77         (0.969621 1.862e-05 0)
25.771        (0.969622 1.86193e-05 0)
25.772        (0.969622 1.86186e-05 0)