# Probe 0  0.03 0 0.0073 
# Time        0            
0.0001         1.25739 1.37425e-16 0.257368 
0.0002         0.976695 -9.46386e-19 0.0884255 
0.0003         0.89172 -1.13587e-19 0.0682345 
0.0004         0.813002 -8.23777e-20 0.0519381 
0.0005         0.746844 -5.73478e-20 0.0413767 
0.0006         0.690315 -4.24727e-20 0.0339247 
0.0007         0.641776 -3.26747e-20 0.0289573 
0.0008         0.599708 -2.57901e-20 0.0251358 
0.0009         0.563032 -2.07895e-20 0.0220942 
0.001          0.530883 -1.70748e-20 0.0196268 
0.0011         0.502562 -1.42563e-20 0.0176005 
0.0012         0.477496 -1.20882e-20 0.0159218 
0.0013         0.45521 -1.03885e-20 0.0145207 
0.0014         0.435309 -9.05061e-21 0.0133443 
0.0015         0.417463 -7.98682e-21 0.0123512 
0.0016         0.401393 -7.13602e-21 0.0115083 
0.0017         0.386866 -6.45241e-21 0.0107893 
0.0018         0.373682 -5.90143e-21 0.0101728 
0.0019         0.361671 -5.45639e-21 0.00964142 
0.002          0.35069 -5.09409e-21 0.00918099 
0.0021         0.340614 -4.80395e-21 0.00877989 
0.0022         0.331338 -4.57e-21 0.00842855 
0.0023         0.32277 -4.38228e-21 0.00811907 
0.0024         0.314832 -4.23241e-21 0.00784493 
0.0025         0.307455 -4.11393e-21 0.00760069 
0.0026         0.30058 -4.02131e-21 0.00738185 
0.0027         0.294155 -3.95014e-21 0.00718465 
0.0028         0.288134 -3.89675e-21 0.00700596 
0.0029         0.28248 -3.85813e-21 0.00684316 
0.003          0.277156 -3.83179e-21 0.00669406 
0.0031         0.272133 -3.81557e-21 0.00655681 
0.0032         0.267383 -3.80791e-21 0.00642987 
0.0033         0.262883 -3.80723e-21 0.00631191 
0.0034         0.258612 -3.8123e-21 0.00620186 
0.0035         0.254551 -3.82213e-21 0.00609876 
0.0036         0.250683 -3.83595e-21 0.00600182 
0.0037         0.246993 -3.85297e-21 0.00591036 
0.0038         0.243468 -3.8726e-21 0.0058238 
0.0039         0.240095 -3.89436e-21 0.00574164 
0.004          0.236864 -3.91777e-21 0.00566346 
0.0041         0.233766 -3.94243e-21 0.00558889 
0.0042         0.23079 -3.96813e-21 0.0055176 
0.0043         0.227929 -3.99455e-21 0.00544932 
0.0044         0.225176 -4.02152e-21 0.0053838 
0.0045         0.222523 -4.0489e-21 0.00532083 
0.0046         0.219965 -4.07652e-21 0.00526022 
0.0047         0.217497 -4.10419e-21 0.0052018 
0.0048         0.215112 -4.13183e-21 0.00514543 
0.0049         0.212806 -4.15937e-21 0.00509096 
0.005          0.210576 -4.18676e-21 0.00503829 
0.0051         0.208416 -4.21386e-21 0.00498731 
0.0052         0.206323 -4.24071e-21 0.00493791 
0.0053         0.204294 -4.26716e-21 0.00489001 
0.0054         0.202325 -4.29335e-21 0.00484353 
0.0055         0.200413 -4.3192e-21 0.00479839 
0.0056         0.198556 -4.34462e-21 0.00475453 
0.0057         0.196751 -4.36957e-21 0.00471188 
0.0058         0.194996 -4.39416e-21 0.00467039 
0.0059         0.193288 -4.41833e-21 0.00462999 
0.006          0.191626 -4.44211e-21 0.00459065 
0.0061         0.190006 -4.46547e-21 0.00455231 
0.0062         0.188428 -4.48845e-21 0.00451493 
0.0063         0.18689 -4.511e-21 0.00447846 
0.0064         0.185389 -4.53314e-21 0.00444288 
0.0065         0.183925 -4.55489e-21 0.00440815 
0.0066         0.182496 -4.57621e-21 0.00437422 
0.0067         0.181101 -4.59716e-21 0.00434107 
0.0068         0.179737 -4.61772e-21 0.00430868 
0.0069         0.178405 -4.63792e-21 0.004277 
0.007          0.177103 -4.65778e-21 0.00424602 
0.0071         0.175829 -4.67726e-21 0.0042157 
0.0072         0.174583 -4.69636e-21 0.00418603 
0.0073         0.173364 -4.71515e-21 0.00415698 
0.0074         0.172171 -4.7336e-21 0.00412853 
0.0075         0.171002 -4.75174e-21 0.00410066 
0.0076         0.169858 -4.76955e-21 0.00407335 
0.0077         0.168736 -4.78707e-21 0.00404657 
0.0078         0.167637 -4.80429e-21 0.00402033 
0.0079         0.16656 -4.82121e-21 0.00399458 
0.008          0.165504 -4.83784e-21 0.00396933 
0.0081         0.164467 -4.85419e-21 0.00394455 
0.0082         0.163451 -4.87028e-21 0.00392024 
0.0083         0.162454 -4.88612e-21 0.00389637 
0.0084         0.161475 -4.90176e-21 0.00387293 
0.0085         0.160514 -4.917e-21 0.00384991 
0.0086         0.15957 -4.93205e-21 0.0038273 
0.0087         0.158643 -4.94689e-21 0.00380509 
0.0088         0.157732 -4.96151e-21 0.00378326 
0.0089         0.156837 -4.9759e-21 0.0037618 
0.009          0.155958 -4.99008e-21 0.0037407 
0.0091         0.155093 -5.00411e-21 0.00371996 
0.0092         0.154244 -5.01781e-21 0.00369957 
0.0093         0.153408 -5.03137e-21 0.0036795 
0.0094         0.152586 -5.04474e-21 0.00365976 
0.0095         0.151777 -5.05792e-21 0.00364034 
0.0096         0.150981 -5.07094e-21 0.00362122 
0.0097         0.150198 -5.08377e-21 0.0036024 
0.0098         0.149427 -5.09641e-21 0.00358388 
0.0099         0.148669 -5.10887e-21 0.00356564 
0.01           0.147922 -5.12119e-21 0.00354768 
0.0101         0.147186 -5.13334e-21 0.00352999 
0.0102         0.146461 -5.14532e-21 0.00351256 
0.0103         0.145748 -5.15713e-21 0.00349539 
0.0104         0.145045 -5.16881e-21 0.00347848 
0.0105         0.144352 -5.18033e-21 0.0034618 
0.0106         0.143669 -5.19173e-21 0.00344537 
0.0107         0.142996 -5.20297e-21 0.00342917 
0.0108         0.142333 -5.21407e-21 0.00341321 
0.0109         0.141678 -5.22503e-21 0.00339746 
0.011          0.141034 -5.23587e-21 0.00338193 
0.0111         0.140398 -5.24658e-21 0.00336662 
0.0112         0.13977 -5.25716e-21 0.00335151 
0.0113         0.139152 -5.26764e-21 0.00333661 
0.0114         0.138541 -5.27798e-21 0.00332191 
0.0115         0.137939 -5.28823e-21 0.0033074 
0.0116         0.137345 -5.29833e-21 0.00329308 
0.0117         0.136758 -5.30834e-21 0.00327895 
0.0118         0.136179 -5.31823e-21 0.003265 
0.0119         0.135608 -5.32801e-21 0.00325123 
0.012          0.135044 -5.3377e-21 0.00323764 
0.0121         0.134487 -5.34728e-21 0.00322422 
0.0122         0.133937 -5.35675e-21 0.00321096 
0.0123         0.133394 -5.36613e-21 0.00319787 
0.0124         0.132858 -5.37541e-21 0.00318494 
0.0125         0.132328 -5.3846e-21 0.00317217 
0.0126         0.131804 -5.3937e-21 0.00315955 
0.0127         0.131287 -5.4027e-21 0.00314708 
0.0128         0.130776 -5.41162e-21 0.00313476 
0.0129         0.130272 -5.42045e-21 0.00312259 
0.013          0.129773 -5.42919e-21 0.00311056 
0.0131         0.12928 -5.43791e-21 0.00309867 
0.0132         0.128792 -5.44648e-21 0.00308692 
0.0133         0.128311 -5.4549e-21 0.0030753 
0.0134         0.127835 -5.46338e-21 0.00306382 
0.0135         0.127364 -5.47168e-21 0.00305247 
0.0136         0.126898 -5.47989e-21 0.00304124 
0.0137         0.126438 -5.4881e-21 0.00303014 
0.0138         0.125983 -5.49623e-21 0.00301916 
0.0139         0.125532 -5.50427e-21 0.0030083 
0.014          0.125087 -5.51219e-21 0.00299756 
0.0141         0.124647 -5.52012e-21 0.00298694 
0.0142         0.124211 -5.52793e-21 0.00297643 
0.0143         0.12378 -5.53566e-21 0.00296603 
0.0144         0.123354 -5.54338e-21 0.00295575 
0.0145         0.122932 -5.55102e-21 0.00294557 
0.0146         0.122514 -5.55857e-21 0.0029355 
0.0147         0.122101 -5.56607e-21 0.00292553 
0.0148         0.121692 -5.57348e-21 0.00291567 
0.0149         0.121287 -5.58088e-21 0.00290591 
0.015          0.120887 -5.5882e-21 0.00289624 
0.0151         0.12049 -5.59543e-21 0.00288668 
0.0152         0.120098 -5.60263e-21 0.00287721 
0.0153         0.119709 -5.60977e-21 0.00286783 
0.0154         0.119324 -5.61691e-21 0.00285855 
0.0155         0.118943 -5.62393e-21 0.00284936 
0.0156         0.118566 -5.6309e-21 0.00284026 
0.0157         0.118192 -5.63781e-21 0.00283125 
0.0158         0.117822 -5.64468e-21 0.00282233 
0.0159         0.117456 -5.65149e-21 0.00281349 
0.016          0.117093 -5.65826e-21 0.00280474 
0.0161         0.116734 -5.66497e-21 0.00279607 
0.0162         0.116378 -5.67164e-21 0.00278748 
0.0163         0.116025 -5.67825e-21 0.00277897 
0.0164         0.115675 -5.6848e-21 0.00277054 
0.0165         0.115329 -5.69134e-21 0.00276219 
0.0166         0.114986 -5.69781e-21 0.00275392 
0.0167         0.114646 -5.70424e-21 0.00274572 
0.0168         0.11431 -5.71063e-21 0.0027376 
0.0169         0.113976 -5.71696e-21 0.00272955 
0.017          0.113645 -5.72327e-21 0.00272158 
0.0171         0.113317 -5.72953e-21 0.00271367 
0.0172         0.112993 -5.73573e-21 0.00270584 
0.0173         0.112671 -5.7419e-21 0.00269807 
0.0174         0.112351 -5.74802e-21 0.00269038 
0.0175         0.112035 -5.7541e-21 0.00268275 
0.0176         0.111721 -5.76014e-21 0.00267518 
0.0177         0.11141 -5.76614e-21 0.00266768 
0.0178         0.111102 -5.77211e-21 0.00266025 
0.0179         0.110797 -5.77803e-21 0.00265288 
0.018          0.110494 -5.78391e-21 0.00264557 
0.0181         0.110193 -5.78976e-21 0.00263833 
0.0182         0.109895 -5.79557e-21 0.00263114 
0.0183         0.1096 -5.80133e-21 0.00262402 
0.0184         0.109307 -5.80707e-21 0.00261695 
0.0185         0.109016 -5.81276e-21 0.00260994 
0.0186         0.108728 -5.81843e-21 0.00260299 
0.0187         0.108442 -5.82406e-21 0.0025961 
0.0188         0.108159 -5.82965e-21 0.00258926 
0.0189         0.107878 -5.83521e-21 0.00258248 
0.019          0.107599 -5.84075e-21 0.00257575 
0.0191         0.107322 -5.84623e-21 0.00256908 
0.0192         0.107048 -5.85168e-21 0.00256245 
0.0193         0.106775 -5.8571e-21 0.00255588 
0.0194         0.106505 -5.86249e-21 0.00254936 
0.0195         0.106237 -5.8678e-21 0.00254289 
0.0196         0.105971 -5.87319e-21 0.00253647 
0.0197         0.105707 -5.87852e-21 0.0025301 
0.0198         0.105445 -5.88379e-21 0.00252378 
0.0199         0.105185 -5.88913e-21 0.00251751 
0.02           0.104928 -5.89432e-21 0.00251129 
0.0201         0.104672 -5.89947e-21 0.0025051 
0.0202         0.104418 -5.90459e-21 0.00249897 
0.0203         0.104166 -5.90979e-21 0.00249288 
0.0204         0.103915 -5.91489e-21 0.00248683 
0.0205         0.103667 -5.91999e-21 0.00248083 
0.0206         0.103421 -5.925e-21 0.00247487 
0.0207         0.103176 -5.92996e-21 0.00246895 
0.0208         0.102933 -5.93499e-21 0.00246308 
0.0209         0.102692 -5.93995e-21 0.00245724 
0.021          0.102453 -5.94486e-21 0.00245145 
0.0211         0.102215 -5.94977e-21 0.0024457 
0.0212         0.101979 -5.95464e-21 0.00243998 
0.0213         0.101745 -5.95948e-21 0.0024343 
0.0214         0.101513 -5.96427e-21 0.00242866 
0.0215         0.101282 -5.96914e-21 0.00242306 
0.0216         0.101052 -5.97392e-21 0.0024175 
0.0217         0.100825 -5.97865e-21 0.00241197 
0.0218         0.100599 -5.98336e-21 0.00240648 
0.0219         0.100374 -5.98805e-21 0.00240102 
0.022          0.100151 -5.99271e-21 0.0023956 
0.0221         0.0999298 -5.99731e-21 0.00239021 
0.0222         0.0997098 -6.002e-21 0.00238486 
0.0223         0.0994914 -6.00659e-21 0.00237954 
0.0224         0.0992744 -6.01116e-21 0.00237425 
0.0225         0.0990589 -6.01572e-21 0.00236899 
0.0226         0.0988449 -6.02023e-21 0.00236376 
0.0227         0.0986322 -6.02473e-21 0.00235857 
0.0228         0.098421 -6.0292e-21 0.0023534 
0.0229         0.0982111 -6.03362e-21 0.00234826 
0.023          0.0980026 -6.03811e-21 0.00234316 
0.0231         0.0977955 -6.04252e-21 0.00233808 
0.0232         0.0975897 -6.0469e-21 0.00233303 
0.0233         0.0973852 -6.05127e-21 0.00232801 
0.0234         0.097182 -6.05562e-21 0.00232301 
0.0235         0.0969802 -6.05992e-21 0.00231804 
0.0236         0.0967796 -6.06422e-21 0.0023131 
0.0237         0.0965802 -6.06846e-21 0.00230818 
0.0238         0.0963821 -6.07275e-21 0.00230329 
0.0239         0.0961852 -6.07699e-21 0.00229843 
0.024          0.0959896 -6.0812e-21 0.00229359 
0.0241         0.0957951 -6.0854e-21 0.00228877 
0.0242         0.0956019 -6.08957e-21 0.00228397 
0.0243         0.0954098 -6.09372e-21 0.0022792 
0.0244         0.0952188 -6.09784e-21 0.00227445 
0.0245         0.095029 -6.10194e-21 0.00226973 
0.0246         0.0948403 -6.10599e-21 0.00226502 
0.0247         0.0946528 -6.11011e-21 0.00226034 
0.0248         0.0944663 -6.11415e-21 0.00225568 
0.0249         0.094281 -6.11817e-21 0.00225104 
0.025          0.0940967 -6.12218e-21 0.00224641 
0.0251         0.0939134 -6.12617e-21 0.00224181 
0.0252         0.0937312 -6.1301e-21 0.00223723 
0.0253         0.0935501 -6.13403e-21 0.00223267 
0.0254         0.0933699 -6.13801e-21 0.00222813 
0.0255         0.0931909 -6.14197e-21 0.00222361 
0.0256         0.0930128 -6.14592e-21 0.0022191 
0.0257         0.0928357 -6.14988e-21 0.00221462 
0.0258         0.0926597 -6.15376e-21 0.00221016 
0.0259         0.0924845 -6.15759e-21 0.00220571 
0.026          0.0923104 -6.16139e-21 0.00220127 
0.0261         0.0921371 -6.1653e-21 0.00219686 
0.0262         0.0919649 -6.16909e-21 0.00219246 
0.0263         0.0917935 -6.17286e-21 0.00218808 
0.0264         0.091623 -6.17659e-21 0.00218371 
0.0265         0.0914535 -6.18037e-21 0.00217936 
0.0266         0.0912848 -6.18409e-21 0.00217503 
0.0267         0.091117 -6.18789e-21 0.00217071 
0.0268         0.0909501 -6.19158e-21 0.00216641 
0.0269         0.090784 -6.19529e-21 0.00216213 
0.027          0.0906188 -6.19895e-21 0.00215786 
0.0271         0.0904544 -6.20263e-21 0.00215361 
0.0272         0.0902909 -6.20625e-21 0.00214937 
0.0273         0.0901282 -6.20986e-21 0.00214515 
0.0274         0.0899663 -6.21358e-21 0.00214095 
0.0275         0.0898052 -6.21721e-21 0.00213677 
0.0276         0.0896449 -6.2208e-21 0.00213259 
0.0277         0.0894853 -6.2244e-21 0.00212844 
0.0278         0.0893266 -6.22797e-21 0.0021243 
0.0279         0.0891686 -6.23155e-21 0.00212018 
0.028          0.0890114 -6.2351e-21 0.00211607 
0.0281         0.088855 -6.23862e-21 0.00211198 
0.0282         0.0886993 -6.24217e-21 0.0021079 
0.0283         0.0885444 -6.2458e-21 0.00210385 
0.0284         0.0883901 -6.2493e-21 0.00209981 
0.0285         0.0882367 -6.25282e-21 0.00209579 
0.0286         0.0880839 -6.25633e-21 0.00209178 
0.0287         0.0879319 -6.25983e-21 0.0020878 
0.0288         0.0877805 -6.26332e-21 0.00208382 
0.0289         0.0876299 -6.26682e-21 0.00207987 
0.029          0.08748 -6.27028e-21 0.00207593 
0.0291         0.0873307 -6.27374e-21 0.00207201 
0.0292         0.0871822 -6.27729e-21 0.00206812 
0.0293         0.0870344 -6.28076e-21 0.00206424 
0.0294         0.0868872 -6.28422e-21 0.00206038 
0.0295         0.0867407 -6.28768e-21 0.00205654 
0.0296         0.0865948 -6.29113e-21 0.00205271 
0.0297         0.0864497 -6.29458e-21 0.00204891 
0.0298         0.0863052 -6.29803e-21 0.00204513 
0.0299         0.0861613 -6.30147e-21 0.00204137 
0.03           0.0860181 -6.30491e-21 0.00203763 
0.0301         0.0858755 -6.30836e-21 0.00203391 
0.0302         0.0857337 -6.31185e-21 0.00203021 
0.0303         0.0855924 -6.31529e-21 0.00202654 
0.0304         0.0854518 -6.31873e-21 0.00202289 
0.0305         0.0853118 -6.32217e-21 0.00201926 
0.0306         0.0851725 -6.32561e-21 0.00201565 
0.0307         0.0850338 -6.32906e-21 0.00201207 
0.0308         0.0848957 -6.3325e-21 0.00200851 
0.0309         0.0847583 -6.33595e-21 0.00200497 
0.031          0.0846215 -6.33935e-21 0.00200146 
0.0311         0.0844853 -6.34288e-21 0.00199797 
0.0312         0.0843498 -6.34633e-21 0.00199451 
0.0313         0.0842148 -6.3498e-21 0.00199108 
0.0314         0.0840806 -6.35328e-21 0.00198767 
0.0315         0.0839469 -6.35673e-21 0.00198429 
0.0316         0.0838138 -6.3602e-21 0.00198094 
0.0317         0.0836814 -6.36371e-21 0.00197761 
0.0318         0.0835496 -6.36718e-21 0.00197431 
0.0319         0.0834185 -6.37062e-21 0.00197104 
0.032          0.0832879 -6.37422e-21 0.0019678 
0.0321         0.0831581 -6.37778e-21 0.00196459 
0.0322         0.0830288 -6.38129e-21 0.00196141 
0.0323         0.0829002 -6.38482e-21 0.00195826 
0.0324         0.0827722 -6.38837e-21 0.00195514 
0.0325         0.0826448 -6.39192e-21 0.00195204 
0.0326         0.0825181 -6.39545e-21 0.00194898 
0.0327         0.082392 -6.39893e-21 0.00194595 
0.0328         0.0822665 -6.40249e-21 0.00194295 
0.0329         0.0821416 -6.40614e-21 0.00193998 
0.033          0.0820174 -6.40971e-21 0.00193705 
0.0331         0.0818938 -6.41326e-21 0.00193414 
0.0332         0.0817708 -6.41676e-21 0.00193127 
0.0333         0.0816485 -6.42043e-21 0.00192843 
0.0334         0.0815269 -6.4241e-21 0.00192563 
0.0335         0.0814058 -6.42769e-21 0.00192286 
0.0336         0.0812854 -6.43127e-21 0.00192013 
0.0337         0.0811657 -6.43479e-21 0.00191742 
0.0338         0.0810465 -6.4385e-21 0.00191475 
0.0339         0.0809281 -6.44224e-21 0.00191212 
0.034          0.0808103 -6.44588e-21 0.00190952 
0.0341         0.0806932 -6.44953e-21 0.00190696 
0.0342         0.0805767 -6.45317e-21 0.00190442 
0.0343         0.0804608 -6.45678e-21 0.00190192 
0.0344         0.0803456 -6.46058e-21 0.00189946 
0.0345         0.0802311 -6.46426e-21 0.00189704 
0.0346         0.0801173 -6.46798e-21 0.00189465 
0.0347         0.0800041 -6.47166e-21 0.0018923 
0.0348         0.0798916 -6.47534e-21 0.00188997 
0.0349         0.0797797 -6.47902e-21 0.00188768 
0.035          0.0796685 -6.48287e-21 0.00188544 
0.0351         0.079558 -6.4866e-21 0.00188323 
0.0352         0.0794482 -6.49034e-21 0.00188105 
0.0353         0.079339 -6.49408e-21 0.0018789 
0.0354         0.0792305 -6.4978e-21 0.00187679 
0.0355         0.0791227 -6.50152e-21 0.00187472 
0.0356         0.0790156 -6.50542e-21 0.00187268 
0.0357         0.0789092 -6.50918e-21 0.00187068 
0.0358         0.0788035 -6.51296e-21 0.00186871 
0.0359         0.0786984 -6.51673e-21 0.00186678 
0.036          0.078594 -6.52051e-21 0.00186488 
0.0361         0.0784904 -6.52427e-21 0.00186301 
0.0362         0.0783874 -6.5281e-21 0.00186118 
0.0363         0.0782851 -6.53194e-21 0.00185938 
0.0364         0.0781835 -6.53574e-21 0.00185762 
0.0365         0.0780826 -6.53955e-21 0.00185589 
0.0366         0.0779824 -6.54336e-21 0.00185419 
0.0367         0.0778829 -6.54717e-21 0.00185253 
0.0368         0.0777841 -6.55093e-21 0.00185089 
0.0369         0.077686 -6.55482e-21 0.0018493 
0.037          0.0775887 -6.55864e-21 0.00184773 
0.0371         0.077492 -6.56244e-21 0.00184619 
0.0372         0.077396 -6.56626e-21 0.00184469 
0.0373         0.0773007 -6.57008e-21 0.00184322 
0.0374         0.0772061 -6.57388e-21 0.00184177 
0.0375         0.0771122 -6.57769e-21 0.00184036 
0.0376         0.077019 -6.58149e-21 0.00183898 
0.0377         0.0769265 -6.58535e-21 0.00183763 
0.0378         0.0768348 -6.58913e-21 0.00183631 
0.0379         0.0767437 -6.59293e-21 0.00183501 
0.038          0.0766533 -6.59671e-21 0.00183375 
0.0381         0.0765636 -6.60051e-21 0.00183251 
0.0382         0.0764746 -6.60428e-21 0.0018313 
0.0383         0.0763863 -6.60804e-21 0.00183011 
0.0384         0.0762988 -6.61181e-21 0.00182895 
0.0385         0.0762119 -6.61559e-21 0.00182782 
0.0386         0.0761257 -6.61933e-21 0.00182672 
0.0387         0.0760402 -6.62308e-21 0.00182564 
0.0388         0.0759553 -6.6268e-21 0.00182458 
0.0389         0.0758712 -6.63046e-21 0.00182355 
0.039          0.0757877 -6.63404e-21 0.00182253 
0.0391         0.0757048 -6.63757e-21 0.00182153 
0.0392         0.0756227 -6.64159e-21 0.00182057 
0.0393         0.0755414 -6.64537e-21 0.00181964 
0.0394         0.0754607 -6.64908e-21 0.00181874 
0.0395         0.0753807 -6.65295e-21 0.00181786 
0.0396         0.0753014 -6.65642e-21 0.00181699 
0.0397         0.0752228 -6.6601e-21 0.00181614 
0.0398         0.0751448 -6.66384e-21 0.00181532 
0.0399         0.0750676 -6.66762e-21 0.00181452 
0.04           0.0749909 -6.67096e-21 0.00181373 
0.0401         0.0749149 -6.67453e-21 0.00181295 
0.0402         0.0748396 -6.67823e-21 0.0018122 
0.0403         0.074765 -6.68185e-21 0.00181147 
0.0404         0.0746911 -6.68544e-21 0.00181075 
0.0405         0.0746177 -6.68882e-21 0.00181005 
0.0406         0.074545 -6.69222e-21 0.00180935 
0.0407         0.0744729 -6.69575e-21 0.00180868 
0.0408         0.0744014 -6.69925e-21 0.00180802 
0.0409         0.0743306 -6.70272e-21 0.00180737 
0.041          0.0742604 -6.70606e-21 0.00180673 
0.0411         0.0741908 -6.70903e-21 0.00180608 
0.0412         0.0741218 -6.71271e-21 0.00180547 
0.0413         0.0740534 -6.71607e-21 0.00180488 
0.0414         0.0739858 -6.71979e-21 0.00180432 
0.0415         0.0739186 -6.72275e-21 0.00180374 
0.0416         0.0738522 -6.72644e-21 0.0018032 
0.0417         0.0737865 -6.7299e-21 0.00180268 
0.0418         0.0737211 -6.73281e-21 0.00180213 
0.0419         0.0736565 -6.73602e-21 0.0018016 
0.042          0.0735924 -6.73942e-21 0.00180109 
0.0421         0.0735288 -6.74217e-21 0.00180055 
0.0422         0.0734656 -6.74502e-21 0.00180002 
0.0423         0.0734033 -6.74888e-21 0.00179955 
0.0424         0.0733416 -6.75232e-21 0.00179911 
0.0425         0.0732806 -6.75553e-21 0.00179867 
0.0426         0.0732201 -6.7588e-21 0.00179824 
0.0427         0.0731602 -6.7619e-21 0.00179782 
0.0428         0.0731008 -6.765e-21 0.0017974 
0.0429         0.0730421 -6.76823e-21 0.00179697 
0.043          0.0729839 -6.77099e-21 0.00179653 
0.0431         0.0729263 -6.77439e-21 0.0017961 
0.0432         0.0728693 -6.77725e-21 0.00179565 
0.0433         0.0728127 -6.78005e-21 0.0017952 
0.0434         0.0727565 -6.78266e-21 0.00179474 
0.0435         0.0727007 -6.78512e-21 0.00179424 
0.0436         0.0726454 -6.78787e-21 0.00179376 
0.0437         0.0725909 -6.79141e-21 0.00179335 
0.0438         0.0725369 -6.79452e-21 0.00179296 
0.0439         0.0724835 -6.79752e-21 0.00179257 
0.044          0.0724305 -6.80029e-21 0.0017922 
0.0441         0.0723782 -6.80325e-21 0.00179184 
0.0442         0.0723262 -6.80582e-21 0.00179147 
0.0443         0.0722747 -6.80837e-21 0.00179109 
0.0444         0.0722239 -6.81151e-21 0.00179073 
0.0445         0.0721734 -6.81408e-21 0.00179036 
0.0446         0.0721234 -6.81656e-21 0.00178998 
0.0447         0.0720738 -6.81902e-21 0.00178959 
0.0448         0.0720246 -6.82146e-21 0.0017892 
0.0449         0.0719758 -6.82377e-21 0.0017888 
0.045          0.0719274 -6.82637e-21 0.00178841 
0.0451         0.0718796 -6.82907e-21 0.001788 
0.0452         0.0718323 -6.83145e-21 0.00178759 
0.0453         0.0717853 -6.83375e-21 0.0017872 
0.0454         0.0717387 -6.83599e-21 0.00178681 
0.0455         0.0716925 -6.83828e-21 0.00178642 
0.0456         0.0716466 -6.84046e-21 0.00178604 
0.0457         0.0716012 -6.84261e-21 0.00178565 
0.0458         0.0715561 -6.84474e-21 0.00178527 
0.0459         0.0715113 -6.84679e-21 0.00178487 
0.046          0.071467 -6.84882e-21 0.00178446 
0.0461         0.0714231 -6.85132e-21 0.00178409 
0.0462         0.0713797 -6.85361e-21 0.00178372 
0.0463         0.0713367 -6.85591e-21 0.00178338 
0.0464         0.0712941 -6.85812e-21 0.00178304 
0.0465         0.0712518 -6.8599e-21 0.00178264 
0.0466         0.0712099 -6.86179e-21 0.0017822 
0.0467         0.0711685 -6.86414e-21 0.00178181 
0.0468         0.0711274 -6.86627e-21 0.00178147 
0.0469         0.0710867 -6.86867e-21 0.00178118 
0.047          0.0710463 -6.87051e-21 0.00178092 
0.0471         0.0710063 -6.87224e-21 0.00178059 
0.0472         0.0709666 -6.87427e-21 0.00178029 
0.0473         0.0709271 -6.8759e-21 0.00177982 
0.0474         0.0708877 -6.87775e-21 0.00177937 
0.0475         0.0708487 -6.87982e-21 0.00177909 
0.0476         0.0708097 -6.88129e-21 0.00177875 
0.0477         0.070771 -6.88294e-21 0.00177841 
0.0478         0.0707327 -6.88501e-21 0.00177823 
0.0479         0.0706946 -6.88652e-21 0.00177798 
0.048          0.0706568 -6.88801e-21 0.00177766 
0.0481         0.0706193 -6.88976e-21 0.00177735 
0.0482         0.0705821 -6.89114e-21 0.00177695 
0.0483         0.070545 -6.89256e-21 0.0017765 
0.0484         0.0705082 -6.89387e-21 0.00177603 
0.0485         0.0704716 -6.89544e-21 0.00177562 
0.0486         0.0704354 -6.89675e-21 0.00177531 
0.0487         0.0703994 -6.89837e-21 0.0017751 
0.0488         0.0703636 -6.89977e-21 0.00177489 
0.0489         0.0703281 -6.90119e-21 0.00177471 
0.049          0.070293 -6.90255e-21 0.00177453 
0.0491         0.0702582 -6.90414e-21 0.00177435 
0.0492         0.0702238 -6.90548e-21 0.00177416 
0.0493         0.0701897 -6.90693e-21 0.00177398 
0.0494         0.0701558 -6.9083e-21 0.00177378 
0.0495         0.0701222 -6.9096e-21 0.00177357 
0.0496         0.0700886 -6.91063e-21 0.00177329 
0.0497         0.0700553 -6.91207e-21 0.00177315 
0.0498         0.0700224 -6.91341e-21 0.00177318 
0.0499         0.0699896 -6.91457e-21 0.00177322 
0.05           0.0699572 -6.91587e-21 0.00177327 
0.0501         0.0699251 -6.91739e-21 0.00177333 
0.0502         0.0698933 -6.91859e-21 0.0017734 
0.0503         0.0698618 -6.91971e-21 0.00177346 
0.0504         0.0698304 -6.92079e-21 0.00177351 
0.0505         0.0697993 -6.9218e-21 0.00177354 
0.0506         0.0697683 -6.92294e-21 0.00177356 
0.0507         0.0697376 -6.92401e-21 0.00177357 
0.0508         0.0697071 -6.92493e-21 0.00177357 
0.0509         0.0696768 -6.92612e-21 0.00177355 
0.051          0.0696467 -6.92712e-21 0.00177352 
0.0511         0.0696168 -6.92805e-21 0.00177345 
0.0512         0.069587 -6.92901e-21 0.00177336 
0.0513         0.0695573 -6.92989e-21 0.00177323 
0.0514         0.069528 -6.93087e-21 0.00177312 
0.0515         0.0694987 -6.93175e-21 0.00177296 
0.0516         0.0694696 -6.93257e-21 0.00177279 
0.0517         0.0694407 -6.93358e-21 0.00177262 
0.0518         0.069412 -6.93438e-21 0.00177244 
0.0519         0.0693835 -6.93519e-21 0.00177222 
0.052          0.0693552 -6.93603e-21 0.00177202 
0.0521         0.0693271 -6.9369e-21 0.00177181 
0.0522         0.0692992 -6.93767e-21 0.00177159 
0.0523         0.0692715 -6.93846e-21 0.00177135 
0.0524         0.0692439 -6.93925e-21 0.00177109 
0.0525         0.0692165 -6.94001e-21 0.00177082 
0.0526         0.0691893 -6.94071e-21 0.00177055 
0.0527         0.0691622 -6.9415e-21 0.00177026 
0.0528         0.0691353 -6.9422e-21 0.00176996 
0.0529         0.0691086 -6.94291e-21 0.00176964 
0.053          0.069082 -6.94354e-21 0.00176931 
0.0531         0.0690556 -6.94425e-21 0.00176897 
0.0532         0.0690294 -6.94489e-21 0.00176862 
0.0533         0.0690033 -6.94555e-21 0.00176827 
0.0534         0.0689774 -6.94617e-21 0.00176792 
0.0535         0.0689517 -6.94678e-21 0.00176756 
0.0536         0.0689261 -6.94737e-21 0.00176718 
0.0537         0.0689006 -6.94799e-21 0.00176679 
0.0538         0.0688753 -6.94857e-21 0.0017664 
0.0539         0.0688501 -6.94911e-21 0.00176599 
0.054          0.0688251 -6.94963e-21 0.00176557 
0.0541         0.0688002 -6.95019e-21 0.00176514 
0.0542         0.0687755 -6.95066e-21 0.00176469 
0.0543         0.0687509 -6.95117e-21 0.00176422 
0.0544         0.0687265 -6.95178e-21 0.0017638 
0.0545         0.0687022 -6.9523e-21 0.0017634 
0.0546         0.0686781 -6.95276e-21 0.00176298 
0.0547         0.0686541 -6.9533e-21 0.00176258 
0.0548         0.0686303 -6.95374e-21 0.00176219 
0.0549         0.0686066 -6.9543e-21 0.00176179 
0.055          0.0685831 -6.95476e-21 0.0017614 
0.0551         0.0685597 -6.95521e-21 0.001761 
0.0552         0.0685364 -6.95563e-21 0.00176059 
0.0553         0.0685133 -6.95617e-21 0.00176018 
0.0554         0.0684903 -6.9565e-21 0.00175976 
0.0555         0.0684674 -6.95697e-21 0.00175933 
0.0556         0.0684446 -6.95737e-21 0.00175889 
0.0557         0.068422 -6.95782e-21 0.00175843 
0.0558         0.0683994 -6.95817e-21 0.00175795 
0.0559         0.068377 -6.95857e-21 0.00175746 
0.056          0.0683548 -6.95898e-21 0.00175697 
0.0561         0.0683327 -6.95943e-21 0.00175649 
0.0562         0.0683107 -6.95974e-21 0.00175614 
0.0563         0.0682889 -6.96012e-21 0.00175583 
0.0564         0.0682671 -6.96042e-21 0.00175553 
0.0565         0.0682455 -6.9608e-21 0.00175523 
0.0566         0.068224 -6.96112e-21 0.00175493 
0.0567         0.0682026 -6.96145e-21 0.00175464 
0.0568         0.0681813 -6.96176e-21 0.00175434 
0.0569         0.0681601 -6.96208e-21 0.00175404 
0.057          0.068139 -6.96234e-21 0.00175374 
0.0571         0.0681181 -6.96266e-21 0.00175344 
0.0572         0.0680973 -6.96292e-21 0.00175313 
0.0573         0.0680766 -6.96326e-21 0.00175283 
0.0574         0.068056 -6.9635e-21 0.00175251 
0.0575         0.0680355 -6.96379e-21 0.0017522 
0.0576         0.0680151 -6.96401e-21 0.00175194 
0.0577         0.0679948 -6.96427e-21 0.00175173 
0.0578         0.0679747 -6.96453e-21 0.00175148 
0.0579         0.0679546 -6.96484e-21 0.00175124 
0.058          0.0679347 -6.96495e-21 0.001751 
0.0581         0.0679148 -6.96511e-21 0.00175078 
0.0582         0.067895 -6.96525e-21 0.00175058 
0.0583         0.0678753 -6.96545e-21 0.00175039 
0.0584         0.0678557 -6.96564e-21 0.00175019 
0.0585         0.0678361 -6.96585e-21 0.00175 
0.0586         0.0678167 -6.96595e-21 0.00174981 
0.0587         0.0677974 -6.96612e-21 0.0017496 
0.0588         0.0677781 -6.96621e-21 0.00174939 
0.0589         0.0677589 -6.9664e-21 0.00174917 
0.059          0.0677398 -6.96655e-21 0.00174896 
0.0591         0.0677208 -6.96666e-21 0.00174876 
0.0592         0.0677019 -6.9668e-21 0.00174856 
0.0593         0.0676831 -6.96691e-21 0.00174835 
0.0594         0.0676645 -6.96704e-21 0.00174815 
0.0595         0.0676459 -6.96715e-21 0.00174795 
0.0596         0.0676274 -6.96721e-21 0.00174774 
0.0597         0.0676089 -6.96733e-21 0.00174753 
0.0598         0.0675906 -6.96744e-21 0.00174731 
0.0599         0.0675723 -6.96737e-21 0.00174714 
0.06           0.0675541 -6.96748e-21 0.00174695 
0.0601         0.0675359 -6.96754e-21 0.00174676 
0.0602         0.0675179 -6.96757e-21 0.00174658 
0.0603         0.0675 -6.96763e-21 0.0017464 
0.0604         0.0674821 -6.96766e-21 0.00174621 
0.0605         0.0674643 -6.96771e-21 0.00174602 
0.0606         0.0674467 -6.96774e-21 0.00174584 
0.0607         0.0674291 -6.96781e-21 0.00174565 