# Probe 0 (0.5 0.5 0.05)
# Time        0            
7.001         -0.0181568   
7.002         -0.01816     
7.003         -0.0181617   
7.004         -0.0181637   
7.005         -0.0181659   
7.006         -0.0181681   
7.007         -0.0181703   
7.008         -0.0181724   
7.009         -0.0181746   
7.01          -0.0181767   
7.011         -0.0181788   
7.012         -0.018181    
7.013         -0.0181831   
7.014         -0.0181853   
7.015         -0.0181875   
7.016         -0.0181896   
7.017         -0.0181917   
7.018         -0.0181939   
7.019         -0.0181961   
7.02          -0.0181983   
7.021         -0.0182004   
7.022         -0.0182026   
7.023         -0.0182048   
7.024         -0.0182069   
7.025         -0.018209    
7.026         -0.0182113   
7.027         -0.0182133   
7.028         -0.0182155   
7.029         -0.0182177   
7.03          -0.0182199   
7.031         -0.0182221   
7.032         -0.0182242   
7.033         -0.0182264   
7.034         -0.0182285   
7.035         -0.0182307   
7.036         -0.0182328   
7.037         -0.018235    
7.038         -0.0182371   
7.039         -0.0182393   
7.04          -0.0182415   
7.041         -0.0182436   
7.042         -0.0182457   
7.043         -0.0182479   
7.044         -0.0182501   
7.045         -0.0182523   
7.046         -0.0182545   
7.047         -0.0182566   
7.048         -0.0182588   
7.049         -0.0182609   
7.05          -0.0182631   
7.051         -0.0182652   
7.052         -0.0182674   
7.053         -0.0182694   
7.054         -0.0182717   
7.055         -0.0182738   
7.056         -0.018276    
7.057         -0.0182782   
7.058         -0.0182804   
7.059         -0.0182825   
7.06          -0.0182847   
7.061         -0.0182869   
7.062         -0.018289    
7.063         -0.0182911   
7.064         -0.0182933   
7.065         -0.0182956   
7.066         -0.0182976   
7.067         -0.0182997   
7.068         -0.0183019   
7.069         -0.0183041   
7.07          -0.0183062   
7.071         -0.0183084   
7.072         -0.0183105   
7.073         -0.0183127   
7.074         -0.0183148   
7.075         -0.018317    
7.076         -0.0183192   
7.077         -0.0183213   
7.078         -0.0183235   
7.079         -0.0183257   
7.08          -0.0183278   
7.081         -0.0183299   
7.082         -0.0183321   
7.083         -0.0183343   
7.084         -0.0183364   
7.085         -0.0183386   
7.086         -0.0183408   
7.087         -0.0183429   
7.088         -0.0183451   
7.089         -0.0183472   
7.09          -0.0183495   
7.091         -0.0183516   
7.092         -0.0183537   
7.093         -0.0183559   
7.094         -0.018358    
7.095         -0.0183602   
7.096         -0.0183623   
7.097         -0.0183644   
7.098         -0.0183666   
7.099         -0.0183688   
7.1           -0.0183709   
7.101         -0.0183731   
7.102         -0.0183752   
7.103         -0.0183774   
7.104         -0.0183795   
7.105         -0.0183817   
7.106         -0.0183838   
7.107         -0.018386    
7.108         -0.0183883   
7.109         -0.0183902   
7.11          -0.0183925   
7.111         -0.0183946   
7.112         -0.0183968   
7.113         -0.018399    
7.114         -0.0184012   
7.115         -0.0184033   
7.116         -0.0184055   
7.117         -0.0184076   
7.118         -0.0184099   
7.119         -0.018412    
7.12          -0.018414    
7.121         -0.0184161   
7.122         -0.0184183   
7.123         -0.0184205   
7.124         -0.0184227   
7.125         -0.0184249   
7.126         -0.018427    
7.127         -0.0184291   
7.128         -0.0184312   
7.129         -0.0184334   
7.13          -0.0184355   
7.131         -0.0184377   
7.132         -0.0184398   
7.133         -0.018442    
7.134         -0.0184441   
7.135         -0.0184463   
7.136         -0.0184483   
7.137         -0.0184505   
7.138         -0.0184527   
7.139         -0.0184548   
7.14          -0.0184569   
7.141         -0.0184591   
7.142         -0.0184613   
7.143         -0.0184635   
7.144         -0.0184658   
7.145         -0.0184679   
7.146         -0.01847     
7.147         -0.0184722   
7.148         -0.0184743   
7.149         -0.0184764   
7.15          -0.0184785   
7.151         -0.0184806   
7.152         -0.0184828   
7.153         -0.018485    
7.154         -0.0184872   
7.155         -0.0184893   
7.156         -0.0184913   
7.157         -0.0184936   
7.158         -0.0184957   
7.159         -0.0184979   
7.16          -0.0185      
7.161         -0.0185022   
7.162         -0.0185044   
7.163         -0.0185065   
7.164         -0.0185087   
7.165         -0.0185108   
7.166         -0.0185129   
7.167         -0.0185151   
7.168         -0.0185172   
7.169         -0.0185194   
7.17          -0.0185216   
7.171         -0.0185238   
7.172         -0.0185259   
7.173         -0.018528    
7.174         -0.0185302   
7.175         -0.0185323   
7.176         -0.0185344   
7.177         -0.0185365   
7.178         -0.0185387   
7.179         -0.0185408   
7.18          -0.018543    
7.181         -0.0185451   
7.182         -0.0185473   
7.183         -0.0185495   
7.184         -0.0185516   
7.185         -0.0185537   
7.186         -0.0185559   
7.187         -0.0185581   
7.188         -0.0185602   
7.189         -0.0185624   
7.19          -0.0185646   
7.191         -0.0185668   
7.192         -0.018569    
7.193         -0.0185709   
7.194         -0.018573    
7.195         -0.0185752   
7.196         -0.0185773   
7.197         -0.0185795   
7.198         -0.0185816   
7.199         -0.0185838   
7.2           -0.0185859   
7.201         -0.0185881   
7.202         -0.0185903   
7.203         -0.0185927   
7.204         -0.0185946   
7.205         -0.0185967   
7.206         -0.0185989   
7.207         -0.0186011   
7.208         -0.0186033   
7.209         -0.0186054   
7.21          -0.0186075   
7.211         -0.0186096   
7.212         -0.0186117   
7.213         -0.0186138   
7.214         -0.0186159   
7.215         -0.0186181   
7.216         -0.0186202   
7.217         -0.0186224   
7.218         -0.0186245   
7.219         -0.0186267   
7.22          -0.0186287   
7.221         -0.018631    
7.222         -0.0186331   
7.223         -0.0186353   
7.224         -0.0186375   
7.225         -0.0186396   
7.226         -0.0186418   
7.227         -0.0186439   
7.228         -0.0186461   
7.229         -0.0186482   
7.23          -0.0186503   
7.231         -0.0186525   
7.232         -0.0186547   
7.233         -0.0186568   
7.234         -0.018659    
7.235         -0.0186611   
7.236         -0.0186632   
7.237         -0.0186654   
7.238         -0.0186675   
7.239         -0.0186698   
7.24          -0.0186717   
7.241         -0.0186739   
7.242         -0.0186761   
7.243         -0.0186782   
7.244         -0.0186804   
7.245         -0.0186826   
7.246         -0.0186847   
7.247         -0.0186869   
7.248         -0.018689    
7.249         -0.0186912   
7.25          -0.0186933   
7.251         -0.0186955   
7.252         -0.0186979   
7.253         -0.0186998   
7.254         -0.0187019   
7.255         -0.018704    
7.256         -0.0187061   
7.257         -0.0187082   
7.258         -0.0187103   
7.259         -0.0187124   
7.26          -0.0187146   
7.261         -0.0187167   
7.262         -0.0187189   
7.263         -0.018721    
7.264         -0.0187232   
7.265         -0.0187253   
7.266         -0.0187275   
7.267         -0.0187296   
7.268         -0.0187317   
7.269         -0.0187339   
7.27          -0.0187362   
7.271         -0.0187382   
7.272         -0.0187403   
7.273         -0.0187425   
7.274         -0.0187446   
7.275         -0.0187468   
7.276         -0.0187489   
7.277         -0.0187511   
7.278         -0.0187532   
7.279         -0.0187554   
7.28          -0.0187575   
7.281         -0.0187597   
7.282         -0.0187618   
7.283         -0.0187639   
7.284         -0.0187661   
7.285         -0.0187682   
7.286         -0.0187703   
7.287         -0.0187725   
7.288         -0.0187746   
7.289         -0.0187768   
7.29          -0.0187788   
7.291         -0.018781    
7.292         -0.0187832   
7.293         -0.0187853   
7.294         -0.0187875   
7.295         -0.0187895   
7.296         -0.0187918   
7.297         -0.0187939   
7.298         -0.018796    
7.299         -0.0187982   
7.3           -0.0188004   
7.301         -0.0188027   
7.302         -0.0188046   
7.303         -0.0188068   
7.304         -0.0188089   
7.305         -0.0188111   
7.306         -0.0188132   
7.307         -0.0188153   
7.308         -0.0188174   
7.309         -0.0188195   
7.31          -0.0188216   
7.311         -0.0188238   
7.312         -0.0188259   
7.313         -0.0188281   
7.314         -0.0188302   
7.315         -0.0188323   
7.316         -0.0188344   
7.317         -0.0188366   
7.318         -0.0188388   
7.319         -0.0188409   
7.32          -0.0188431   
7.321         -0.0188452   
7.322         -0.0188473   
7.323         -0.0188494   
7.324         -0.0188516   
7.325         -0.0188537   
7.326         -0.0188558   
7.327         -0.0188581   
7.328         -0.0188602   
7.329         -0.0188624   
7.33          -0.0188645   
7.331         -0.0188666   
7.332         -0.0188688   
7.333         -0.0188709   
7.334         -0.0188731   
7.335         -0.0188752   
7.336         -0.0188773   
7.337         -0.0188794   
7.338         -0.0188815   
7.339         -0.0188837   
7.34          -0.0188858   
7.341         -0.018888    
7.342         -0.0188901   
7.343         -0.0188923   
7.344         -0.0188944   
7.345         -0.0188964   
7.346         -0.0188987   
7.347         -0.0189008   
7.348         -0.0189029   
7.349         -0.0189051   
7.35          -0.0189073   
7.351         -0.0189094   
7.352         -0.0189115   
7.353         -0.0189136   
7.354         -0.0189158   
7.355         -0.0189179   
7.356         -0.0189201   
7.357         -0.0189222   
7.358         -0.0189243   
7.359         -0.0189265   
7.36          -0.0189286   
7.361         -0.0189308   
7.362         -0.0189329   
7.363         -0.018935    
7.364         -0.018937    
7.365         -0.0189392   
7.366         -0.0189414   
7.367         -0.0189435   
7.368         -0.0189456   
7.369         -0.0189477   
7.37          -0.0189499   
7.371         -0.018952    
7.372         -0.0189541   
7.373         -0.0189563   
7.374         -0.0189584   
7.375         -0.0189606   
7.376         -0.0189627   
7.377         -0.0189649   
7.378         -0.018967    
7.379         -0.0189691   
7.38          -0.0189712   
7.381         -0.0189734   
7.382         -0.0189755   
7.383         -0.0189777   
7.384         -0.0189798   
7.385         -0.0189821   
7.386         -0.018984    
7.387         -0.0189861   
7.388         -0.0189882   
7.389         -0.0189904   
7.39          -0.0189925   
7.391         -0.0189947   
7.392         -0.0189968   
7.393         -0.018999    
7.394         -0.0190011   
7.395         -0.0190032   
7.396         -0.0190054   
7.397         -0.0190075   
7.398         -0.0190096   
7.399         -0.0190118   
7.4           -0.0190139   
7.401         -0.019016    
7.402         -0.0190182   
7.403         -0.0190203   
7.404         -0.0190224   
7.405         -0.0190245   
7.406         -0.0190267   
7.407         -0.0190288   
7.408         -0.0190309   
7.409         -0.0190331   
7.41          -0.0190352   
7.411         -0.0190374   
7.412         -0.0190395   
7.413         -0.0190416   
7.414         -0.0190438   
7.415         -0.0190459   
7.416         -0.019048    
7.417         -0.0190502   
7.418         -0.0190523   
7.419         -0.0190544   
7.42          -0.0190566   
7.421         -0.0190587   
7.422         -0.0190608   
7.423         -0.019063    
7.424         -0.0190651   
7.425         -0.0190672   
7.426         -0.0190694   
7.427         -0.0190715   
7.428         -0.0190735   
7.429         -0.0190757   
7.43          -0.0190778   
7.431         -0.0190799   
7.432         -0.0190821   
7.433         -0.0190842   
7.434         -0.0190863   
7.435         -0.0190885   
7.436         -0.0190906   
7.437         -0.0190927   
7.438         -0.0190949   
7.439         -0.019097    
7.44          -0.0190992   
7.441         -0.0191013   
7.442         -0.0191035   
7.443         -0.0191056   
7.444         -0.0191077   
7.445         -0.0191099   
7.446         -0.0191119   
7.447         -0.019114    
7.448         -0.0191162   
7.449         -0.0191183   
7.45          -0.0191204   
7.451         -0.0191225   
7.452         -0.0191247   
7.453         -0.0191268   
7.454         -0.0191289   
7.455         -0.0191311   
7.456         -0.0191332   
7.457         -0.0191353   
7.458         -0.0191374   
7.459         -0.0191396   
7.46          -0.0191417   
7.461         -0.0191438   
7.462         -0.019146    
7.463         -0.0191481   
7.464         -0.0191502   
7.465         -0.0191523   
7.466         -0.0191545   
7.467         -0.0191566   
7.468         -0.0191588   
7.469         -0.0191609   
7.47          -0.0191631   
7.471         -0.0191651   
7.472         -0.0191672   
7.473         -0.0191694   
7.474         -0.0191714   
7.475         -0.0191736   
7.476         -0.0191757   
7.477         -0.0191778   
7.478         -0.0191799   
7.479         -0.0191821   
7.48          -0.0191843   
7.481         -0.0191864   
7.482         -0.0191885   
7.483         -0.0191907   
7.484         -0.0191928   
7.485         -0.0191949   
7.486         -0.0191969   
7.487         -0.0191992   
7.488         -0.0192013   
7.489         -0.0192034   
7.49          -0.0192056   
7.491         -0.0192077   
7.492         -0.0192099   
7.493         -0.019212    
7.494         -0.0192141   
7.495         -0.0192162   
7.496         -0.0192183   
7.497         -0.0192204   
7.498         -0.0192226   
7.499         -0.0192247   
7.5           -0.0192267   
7.501         -0.0192288   
7.502         -0.019231    
7.503         -0.0192331   
7.504         -0.0192353   
7.505         -0.0192374   
7.506         -0.0192396   
7.507         -0.0192417   
7.508         -0.0192438   
7.509         -0.019246    
7.51          -0.0192482   
7.511         -0.0192502   
7.512         -0.0192522   
7.513         -0.0192544   
7.514         -0.0192564   
7.515         -0.0192586   
7.516         -0.0192608   
7.517         -0.0192629   
7.518         -0.0192653   
7.519         -0.0192671   
7.52          -0.0192692   
7.521         -0.0192714   
7.522         -0.0192734   
7.523         -0.0192756   
7.524         -0.0192777   
7.525         -0.0192799   
7.526         -0.019282    
7.527         -0.0192841   
7.528         -0.0192863   
7.529         -0.0192884   
7.53          -0.0192905   
7.531         -0.0192926   
7.532         -0.0192948   
7.533         -0.0192969   
7.534         -0.019299    
7.535         -0.0193011   
7.536         -0.0193033   
7.537         -0.0193054   
7.538         -0.0193075   
7.539         -0.0193096   
7.54          -0.0193117   
7.541         -0.0193138   
7.542         -0.019316    
7.543         -0.0193181   
7.544         -0.0193202   
7.545         -0.0193223   
7.546         -0.0193245   
7.547         -0.0193266   
7.548         -0.0193287   
7.549         -0.0193308   
7.55          -0.019333    
7.551         -0.0193351   
7.552         -0.0193372   
7.553         -0.0193394   
7.554         -0.0193415   
7.555         -0.0193436   
7.556         -0.0193457   
7.557         -0.0193478   
7.558         -0.0193499   
7.559         -0.019352    
7.56          -0.0193542   
7.561         -0.0193563   
7.562         -0.0193585   
7.563         -0.0193606   
7.564         -0.0193627   
7.565         -0.0193648   
7.566         -0.019367    
7.567         -0.0193691   
7.568         -0.0193712   
7.569         -0.0193733   
7.57          -0.0193753   
7.571         -0.0193774   
7.572         -0.0193795   
7.573         -0.0193817   
7.574         -0.0193839   
7.575         -0.019386    
7.576         -0.0193881   
7.577         -0.0193902   
7.578         -0.0193924   
7.579         -0.0193945   
7.58          -0.0193966   
7.581         -0.0193987   
7.582         -0.0194009   
7.583         -0.019403    
7.584         -0.0194051   
7.585         -0.0194072   
7.586         -0.0194093   
7.587         -0.0194115   
7.588         -0.0194136   
7.589         -0.0194157   
7.59          -0.0194178   
7.591         -0.01942     
7.592         -0.0194222   
7.593         -0.0194241   
7.594         -0.0194262   
7.595         -0.0194283   
7.596         -0.0194305   
7.597         -0.0194326   
7.598         -0.0194347   
7.599         -0.0194369   
7.6           -0.019439    
7.601         -0.0194411   
7.602         -0.0194432   
7.603         -0.0194453   
7.604         -0.0194475   
7.605         -0.0194496   
7.606         -0.0194517   
7.607         -0.0194538   
7.608         -0.019456    
7.609         -0.0194581   
7.61          -0.0194602   
7.611         -0.0194623   
7.612         -0.0194643   
7.613         -0.0194665   
7.614         -0.0194686   
7.615         -0.0194708   
7.616         -0.0194729   
7.617         -0.019475    
7.618         -0.0194771   
7.619         -0.0194792   
7.62          -0.0194814   
7.621         -0.0194837   
7.622         -0.0194855   
7.623         -0.0194877   
7.624         -0.0194898   
7.625         -0.0194919   
7.626         -0.019494    
7.627         -0.0194961   
7.628         -0.0194983   
7.629         -0.0195004   
7.63          -0.0195025   
7.631         -0.0195046   
7.632         -0.0195067   
7.633         -0.0195089   
7.634         -0.019511    
7.635         -0.0195131   
7.636         -0.0195152   
7.637         -0.0195173   
7.638         -0.0195195   
7.639         -0.0195216   
7.64          -0.0195237   
7.641         -0.0195258   
7.642         -0.0195279   
7.643         -0.01953     
7.644         -0.0195321   
7.645         -0.0195342   
7.646         -0.0195365   
7.647         -0.0195384   
7.648         -0.0195405   
7.649         -0.0195426   
7.65          -0.0195448   
7.651         -0.0195469   
7.652         -0.019549    
7.653         -0.0195511   
7.654         -0.0195533   
7.655         -0.0195554   
7.656         -0.0195575   
7.657         -0.0195597   
7.658         -0.0195618   
7.659         -0.0195639   
7.66          -0.019566    
7.661         -0.0195681   
7.662         -0.0195702   
7.663         -0.0195723   
7.664         -0.0195745   
7.665         -0.0195766   
7.666         -0.0195787   
7.667         -0.0195808   
7.668         -0.0195829   
7.669         -0.019585    
7.67          -0.0195872   
7.671         -0.0195893   
7.672         -0.0195914   
7.673         -0.0195935   
7.674         -0.0195958   
7.675         -0.0195977   
7.676         -0.0195998   
7.677         -0.019602    
7.678         -0.0196041   
7.679         -0.0196063   
7.68          -0.0196084   
7.681         -0.0196105   
7.682         -0.0196127   
7.683         -0.0196146   
7.684         -0.0196167   
7.685         -0.0196188   
7.686         -0.0196209   
7.687         -0.019623    
7.688         -0.0196251   
7.689         -0.0196272   
7.69          -0.0196294   
7.691         -0.0196316   
7.692         -0.0196336   
7.693         -0.0196358   
7.694         -0.0196379   
7.695         -0.01964     
7.696         -0.0196421   
7.697         -0.0196441   
7.698         -0.0196462   
7.699         -0.0196483   
7.7           -0.0196504   
7.701         -0.0196525   
7.702         -0.0196546   
7.703         -0.0196568   
7.704         -0.0196589   
7.705         -0.0196611   
7.706         -0.0196632   
7.707         -0.0196653   
7.708         -0.0196674   
7.709         -0.0196695   
7.71          -0.0196716   
7.711         -0.0196737   
7.712         -0.0196759   
7.713         -0.019678    
7.714         -0.0196802   
7.715         -0.0196823   
7.716         -0.0196844   
7.717         -0.0196865   
7.718         -0.0196886   
7.719         -0.0196906   
7.72          -0.0196927   
7.721         -0.0196947   
7.722         -0.0196969   
7.723         -0.019699    
7.724         -0.0197011   
7.725         -0.0197032   
7.726         -0.0197052   
7.727         -0.0197076   
7.728         -0.0197095   
7.729         -0.0197116   
7.73          -0.0197138   
7.731         -0.0197159   
7.732         -0.019718    
7.733         -0.0197202   
7.734         -0.0197223   
7.735         -0.0197244   
7.736         -0.0197265   
7.737         -0.0197286   
7.738         -0.0197307   
7.739         -0.0197328   
7.74          -0.0197349   
7.741         -0.019737    
7.742         -0.0197392   
7.743         -0.0197413   
7.744         -0.0197433   
7.745         -0.0197455   
7.746         -0.0197477   
7.747         -0.0197498   
7.748         -0.0197519   
7.749         -0.019754    
7.75          -0.0197561   
7.751         -0.019758    
7.752         -0.0197602   
7.753         -0.0197623   
7.754         -0.0197644   
7.755         -0.0197665   
7.756         -0.0197686   
7.757         -0.0197708   
7.758         -0.0197729   
7.759         -0.019775    
7.76          -0.0197771   
7.761         -0.0197792   
7.762         -0.0197813   
7.763         -0.0197834   
7.764         -0.0197855   
7.765         -0.0197876   
7.766         -0.0197897   
7.767         -0.0197918   
7.768         -0.019794    
7.769         -0.0197961   
7.77          -0.0197982   
7.771         -0.0198003   
7.772         -0.0198024   
7.773         -0.0198045   
7.774         -0.0198066   
7.775         -0.0198087   
7.776         -0.0198109   
7.777         -0.019813    
7.778         -0.0198151   
7.779         -0.0198172   
7.78          -0.0198193   
7.781         -0.0198214   
7.782         -0.0198234   
7.783         -0.0198256   
7.784         -0.0198277   
7.785         -0.0198298   
7.786         -0.019832    
7.787         -0.0198341   
7.788         -0.0198362   
7.789         -0.0198383   
7.79          -0.0198404   
7.791         -0.0198425   
7.792         -0.0198446   
7.793         -0.0198467   
7.794         -0.0198487   
7.795         -0.0198508   
7.796         -0.0198529   
7.797         -0.019855    
7.798         -0.0198571   
7.799         -0.0198593   
7.8           -0.0198613   
7.801         -0.0198635   
7.802         -0.0198656   
7.803         -0.0198677   
7.804         -0.0198698   
7.805         -0.0198719   
7.806         -0.019874    
7.807         -0.0198761   
7.808         -0.0198782   
7.809         -0.0198803   
7.81          -0.0198824   
7.811         -0.0198845   
7.812         -0.0198866   
7.813         -0.0198887   
7.814         -0.0198908   
7.815         -0.0198929   
7.816         -0.0198951   
7.817         -0.0198972   
7.818         -0.0198993   
7.819         -0.0199014   
7.82          -0.0199035   
7.821         -0.0199057   
7.822         -0.0199077   
7.823         -0.0199099   
7.824         -0.0199118   
7.825         -0.019914    
7.826         -0.0199161   
7.827         -0.0199182   
7.828         -0.0199204   
7.829         -0.0199225   
7.83          -0.0199246   
7.831         -0.0199267   
7.832         -0.0199288   
7.833         -0.0199309   
7.834         -0.019933    
7.835         -0.0199351   
7.836         -0.0199372   
7.837         -0.0199394   
7.838         -0.0199414   
7.839         -0.0199435   
7.84          -0.0199455   
7.841         -0.0199477   
7.842         -0.0199498   
7.843         -0.0199519   
7.844         -0.019954    
7.845         -0.0199561   
7.846         -0.0199582   
7.847         -0.0199603   
7.848         -0.0199624   
7.849         -0.0199645   
7.85          -0.0199666   
7.851         -0.0199687   
7.852         -0.0199708   
7.853         -0.0199729   
7.854         -0.019975    
7.855         -0.0199771   
7.856         -0.0199792   
7.857         -0.0199813   
7.858         -0.0199834   
7.859         -0.0199855   
7.86          -0.0199876   
7.861         -0.0199898   
7.862         -0.0199918   
7.863         -0.019994    
7.864         -0.0199961   
7.865         -0.0199982   
7.866         -0.0200003   
7.867         -0.0200024   
7.868         -0.0200045   
7.869         -0.0200066   
7.87          -0.0200087   
7.871         -0.0200107   
7.872         -0.0200128   
7.873         -0.020015    
7.874         -0.0200171   
7.875         -0.0200192   
7.876         -0.0200213   
7.877         -0.0200234   
7.878         -0.0200255   
7.879         -0.0200276   
7.88          -0.0200297   
7.881         -0.0200318   
7.882         -0.0200339   
7.883         -0.020036    
7.884         -0.0200381   
7.885         -0.0200402   
7.886         -0.0200423   
7.887         -0.0200444   
7.888         -0.0200465   
7.889         -0.0200486   
7.89          -0.0200507   
7.891         -0.0200528   
7.892         -0.0200549   
7.893         -0.0200571   
7.894         -0.0200591   
7.895         -0.0200612   
7.896         -0.0200633   
7.897         -0.0200654   
7.898         -0.0200675   
7.899         -0.0200696   
7.9           -0.0200716   
7.901         -0.0200737   
7.902         -0.0200758   
7.903         -0.0200779   
7.904         -0.0200801   
7.905         -0.0200822   
7.906         -0.0200842   
7.907         -0.0200863   
7.908         -0.0200884   
7.909         -0.0200906   
7.91          -0.0200926   
7.911         -0.0200948   
7.912         -0.0200969   
7.913         -0.020099    
7.914         -0.0201011   
7.915         -0.0201032   
7.916         -0.0201053   
7.917         -0.0201075   
7.918         -0.0201095   
7.919         -0.0201116   
7.92          -0.0201137   
7.921         -0.0201158   
7.922         -0.0201179   
7.923         -0.02012     
7.924         -0.0201221   
7.925         -0.0201242   
7.926         -0.0201263   
7.927         -0.0201284   
7.928         -0.0201305   
7.929         -0.0201326   
7.93          -0.0201347   
7.931         -0.0201368   
7.932         -0.0201389   
7.933         -0.020141    
7.934         -0.020143    
7.935         -0.0201452   
7.936         -0.0201472   
7.937         -0.0201494   
7.938         -0.0201514   
7.939         -0.0201536   
7.94          -0.0201556   
7.941         -0.0201577   
7.942         -0.0201598   
7.943         -0.0201619   
7.944         -0.020164    
7.945         -0.0201661   
7.946         -0.0201682   
7.947         -0.0201703   
7.948         -0.0201724   
7.949         -0.0201746   
7.95          -0.0201767   
7.951         -0.0201788   
7.952         -0.020181    
7.953         -0.0201829   
7.954         -0.020185    
7.955         -0.0201871   
7.956         -0.0201892   
7.957         -0.0201912   
7.958         -0.0201934   
7.959         -0.0201954   
7.96          -0.0201975   
7.961         -0.0201996   
7.962         -0.0202017   
7.963         -0.0202038   
7.964         -0.0202059   
7.965         -0.020208    
7.966         -0.0202101   
7.967         -0.0202122   
7.968         -0.0202144   
7.969         -0.0202165   
7.97          -0.0202187   
7.971         -0.0202206   
7.972         -0.0202227   
7.973         -0.0202247   
7.974         -0.0202269   
7.975         -0.020229    
7.976         -0.0202311   
7.977         -0.0202332   
7.978         -0.0202353   
7.979         -0.0202374   
7.98          -0.0202395   
7.981         -0.0202416   
7.982         -0.0202437   
7.983         -0.0202458   
7.984         -0.0202479   
7.985         -0.02025     
7.986         -0.0202521   
7.987         -0.0202541   
7.988         -0.0202562   
7.989         -0.0202583   
7.99          -0.0202604   
7.991         -0.0202625   
7.992         -0.0202646   
7.993         -0.0202667   
7.994         -0.0202688   
7.995         -0.0202709   
7.996         -0.020273    
7.997         -0.0202751   
7.998         -0.0202772   
7.999         -0.0202793   
8             -0.0202814   
8.001         -0.0202835   
8.002         -0.0202856   
8.003         -0.0202877   
8.004         -0.0202898   
8.005         -0.0202919   
8.006         -0.020294    
8.007         -0.0202961   
8.008         -0.0202981   
8.009         -0.0203002   
8.01          -0.0203023   
8.011         -0.0203044   
8.012         -0.0203065   
8.013         -0.0203086   
8.014         -0.0203107   
8.015         -0.0203128   
8.016         -0.0203149   
8.017         -0.020317    
8.018         -0.0203191   
8.019         -0.0203213   
8.02          -0.0203233   
8.021         -0.0203254   
8.022         -0.0203275   
8.023         -0.0203296   
8.024         -0.0203317   
8.025         -0.0203339   
8.026         -0.0203358   
8.027         -0.0203378   
8.028         -0.02034     
8.029         -0.0203421   
8.03          -0.0203442   
8.031         -0.0203462   
8.032         -0.0203483   
8.033         -0.0203504   
8.034         -0.0203526   
8.035         -0.0203546   
8.036         -0.0203567   
8.037         -0.0203589   
8.038         -0.020361    
8.039         -0.0203632   
8.04          -0.020365    
8.041         -0.0203672   
8.042         -0.0203693   
8.043         -0.0203714   
8.044         -0.0203735   
8.045         -0.0203756   
8.046         -0.0203776   
8.047         -0.0203797   
8.048         -0.0203818   
8.049         -0.0203839   
8.05          -0.020386    
8.051         -0.0203881   
8.052         -0.0203902   
8.053         -0.0203922   
8.054         -0.0203943   
8.055         -0.0203964   
8.056         -0.0203985   
8.057         -0.0204006   
8.058         -0.0204027   
8.059         -0.0204048   
8.06          -0.0204069   
8.061         -0.020409    
8.062         -0.0204111   
8.063         -0.0204132   
8.064         -0.0204153   
8.065         -0.0204174   
8.066         -0.0204195   
8.067         -0.0204216   
8.068         -0.0204237   
8.069         -0.0204258   