# Probe 0 (0.5 0.5 0.05)
# Time        0            
7.001         (0.980484 2.07931e-05 0)
7.002         (0.980485 2.07904e-05 0)
7.003         (0.980485 2.07881e-05 0)
7.004         (0.980485 2.07865e-05 0)
7.005         (0.980485 2.07853e-05 0)
7.006         (0.980486 2.07845e-05 0)
7.007         (0.980486 2.07838e-05 0)
7.008         (0.980487 2.07833e-05 0)
7.009         (0.980487 2.07829e-05 0)
7.01          (0.980487 2.07825e-05 0)
7.011         (0.980488 2.07822e-05 0)
7.012         (0.980488 2.07818e-05 0)
7.013         (0.980488 2.07815e-05 0)
7.014         (0.980489 2.07811e-05 0)
7.015         (0.980489 2.07808e-05 0)
7.016         (0.98049 2.07805e-05 0)
7.017         (0.98049 2.07801e-05 0)
7.018         (0.98049 2.07797e-05 0)
7.019         (0.980491 2.07794e-05 0)
7.02          (0.980491 2.0779e-05 0)
7.021         (0.980491 2.07787e-05 0)
7.022         (0.980492 2.07783e-05 0)
7.023         (0.980492 2.07779e-05 0)
7.024         (0.980493 2.07775e-05 0)
7.025         (0.980493 2.07771e-05 0)
7.026         (0.980493 2.07768e-05 0)
7.027         (0.980494 2.07764e-05 0)
7.028         (0.980494 2.0776e-05 0)
7.029         (0.980494 2.07756e-05 0)
7.03          (0.980495 2.07753e-05 0)
7.031         (0.980495 2.07749e-05 0)
7.032         (0.980495 2.07745e-05 0)
7.033         (0.980496 2.07741e-05 0)
7.034         (0.980496 2.07738e-05 0)
7.035         (0.980497 2.07734e-05 0)
7.036         (0.980497 2.0773e-05 0)
7.037         (0.980497 2.07727e-05 0)
7.038         (0.980498 2.07723e-05 0)
7.039         (0.980498 2.07719e-05 0)
7.04          (0.980498 2.07715e-05 0)
7.041         (0.980499 2.07712e-05 0)
7.042         (0.980499 2.07708e-05 0)
7.043         (0.9805 2.07705e-05 0)
7.044         (0.9805 2.07701e-05 0)
7.045         (0.9805 2.07697e-05 0)
7.046         (0.980501 2.07694e-05 0)
7.047         (0.980501 2.0769e-05 0)
7.048         (0.980501 2.07687e-05 0)
7.049         (0.980502 2.07683e-05 0)
7.05          (0.980502 2.07679e-05 0)
7.051         (0.980503 2.07676e-05 0)
7.052         (0.980503 2.07672e-05 0)
7.053         (0.980503 2.07669e-05 0)
7.054         (0.980504 2.07665e-05 0)
7.055         (0.980504 2.07662e-05 0)
7.056         (0.980504 2.07658e-05 0)
7.057         (0.980505 2.07655e-05 0)
7.058         (0.980505 2.07651e-05 0)
7.059         (0.980506 2.07648e-05 0)
7.06          (0.980506 2.07644e-05 0)
7.061         (0.980506 2.07641e-05 0)
7.062         (0.980507 2.07637e-05 0)
7.063         (0.980507 2.07634e-05 0)
7.064         (0.980507 2.0763e-05 0)
7.065         (0.980508 2.07626e-05 0)
7.066         (0.980508 2.07623e-05 0)
7.067         (0.980509 2.07619e-05 0)
7.068         (0.980509 2.07616e-05 0)
7.069         (0.980509 2.07612e-05 0)
7.07          (0.98051 2.07609e-05 0)
7.071         (0.98051 2.07605e-05 0)
7.072         (0.98051 2.07602e-05 0)
7.073         (0.980511 2.07598e-05 0)
7.074         (0.980511 2.07595e-05 0)
7.075         (0.980512 2.07591e-05 0)
7.076         (0.980512 2.07588e-05 0)
7.077         (0.980512 2.07584e-05 0)
7.078         (0.980513 2.0758e-05 0)
7.079         (0.980513 2.07577e-05 0)
7.08          (0.980513 2.07573e-05 0)
7.081         (0.980514 2.0757e-05 0)
7.082         (0.980514 2.07566e-05 0)
7.083         (0.980514 2.07562e-05 0)
7.084         (0.980515 2.07559e-05 0)
7.085         (0.980515 2.07555e-05 0)
7.086         (0.980516 2.07552e-05 0)
7.087         (0.980516 2.07548e-05 0)
7.088         (0.980516 2.07545e-05 0)
7.089         (0.980517 2.07541e-05 0)
7.09          (0.980517 2.07537e-05 0)
7.091         (0.980517 2.07534e-05 0)
7.092         (0.980518 2.0753e-05 0)
7.093         (0.980518 2.07527e-05 0)
7.094         (0.980519 2.07523e-05 0)
7.095         (0.980519 2.07519e-05 0)
7.096         (0.980519 2.07516e-05 0)
7.097         (0.98052 2.07512e-05 0)
7.098         (0.98052 2.07508e-05 0)
7.099         (0.98052 2.07505e-05 0)
7.1           (0.980521 2.07501e-05 0)
7.101         (0.980521 2.07497e-05 0)
7.102         (0.980522 2.07494e-05 0)
7.103         (0.980522 2.0749e-05 0)
7.104         (0.980522 2.07486e-05 0)
7.105         (0.980523 2.07483e-05 0)
7.106         (0.980523 2.07479e-05 0)
7.107         (0.980523 2.07475e-05 0)
7.108         (0.980524 2.07472e-05 0)
7.109         (0.980524 2.07468e-05 0)
7.11          (0.980525 2.07464e-05 0)
7.111         (0.980525 2.07461e-05 0)
7.112         (0.980525 2.07457e-05 0)
7.113         (0.980526 2.07453e-05 0)
7.114         (0.980526 2.0745e-05 0)
7.115         (0.980526 2.07446e-05 0)
7.116         (0.980527 2.07442e-05 0)
7.117         (0.980527 2.07438e-05 0)
7.118         (0.980528 2.07435e-05 0)
7.119         (0.980528 2.07431e-05 0)
7.12          (0.980528 2.07427e-05 0)
7.121         (0.980529 2.07424e-05 0)
7.122         (0.980529 2.0742e-05 0)
7.123         (0.980529 2.07416e-05 0)
7.124         (0.98053 2.07412e-05 0)
7.125         (0.98053 2.07409e-05 0)
7.126         (0.980531 2.07405e-05 0)
7.127         (0.980531 2.07401e-05 0)
7.128         (0.980531 2.07398e-05 0)
7.129         (0.980532 2.07394e-05 0)
7.13          (0.980532 2.0739e-05 0)
7.131         (0.980532 2.07386e-05 0)
7.132         (0.980533 2.07383e-05 0)
7.133         (0.980533 2.07379e-05 0)
7.134         (0.980533 2.07375e-05 0)
7.135         (0.980534 2.07371e-05 0)
7.136         (0.980534 2.07368e-05 0)
7.137         (0.980535 2.07364e-05 0)
7.138         (0.980535 2.0736e-05 0)
7.139         (0.980535 2.07356e-05 0)
7.14          (0.980536 2.07352e-05 0)
7.141         (0.980536 2.07349e-05 0)
7.142         (0.980536 2.07345e-05 0)
7.143         (0.980537 2.07341e-05 0)
7.144         (0.980537 2.07337e-05 0)
7.145         (0.980538 2.07334e-05 0)
7.146         (0.980538 2.0733e-05 0)
7.147         (0.980538 2.07326e-05 0)
7.148         (0.980539 2.07322e-05 0)
7.149         (0.980539 2.07318e-05 0)
7.15          (0.980539 2.07315e-05 0)
7.151         (0.98054 2.07311e-05 0)
7.152         (0.98054 2.07307e-05 0)
7.153         (0.980541 2.07303e-05 0)
7.154         (0.980541 2.07299e-05 0)
7.155         (0.980541 2.07296e-05 0)
7.156         (0.980542 2.07292e-05 0)
7.157         (0.980542 2.07288e-05 0)
7.158         (0.980542 2.07284e-05 0)
7.159         (0.980543 2.0728e-05 0)
7.16          (0.980543 2.07276e-05 0)
7.161         (0.980544 2.07273e-05 0)
7.162         (0.980544 2.07269e-05 0)
7.163         (0.980544 2.07265e-05 0)
7.164         (0.980545 2.07261e-05 0)
7.165         (0.980545 2.07257e-05 0)
7.166         (0.980545 2.07254e-05 0)
7.167         (0.980546 2.0725e-05 0)
7.168         (0.980546 2.07246e-05 0)
7.169         (0.980547 2.07242e-05 0)
7.17          (0.980547 2.07238e-05 0)
7.171         (0.980547 2.07234e-05 0)
7.172         (0.980548 2.07231e-05 0)
7.173         (0.980548 2.07227e-05 0)
7.174         (0.980548 2.07223e-05 0)
7.175         (0.980549 2.07219e-05 0)
7.176         (0.980549 2.07215e-05 0)
7.177         (0.980549 2.07211e-05 0)
7.178         (0.98055 2.07207e-05 0)
7.179         (0.98055 2.07204e-05 0)
7.18          (0.980551 2.072e-05 0)
7.181         (0.980551 2.07196e-05 0)
7.182         (0.980551 2.07192e-05 0)
7.183         (0.980552 2.07188e-05 0)
7.184         (0.980552 2.07184e-05 0)
7.185         (0.980552 2.0718e-05 0)
7.186         (0.980553 2.07177e-05 0)
7.187         (0.980553 2.07173e-05 0)
7.188         (0.980554 2.07169e-05 0)
7.189         (0.980554 2.07165e-05 0)
7.19          (0.980554 2.07161e-05 0)
7.191         (0.980555 2.07157e-05 0)
7.192         (0.980555 2.07153e-05 0)
7.193         (0.980555 2.07149e-05 0)
7.194         (0.980556 2.07145e-05 0)
7.195         (0.980556 2.07142e-05 0)
7.196         (0.980557 2.07138e-05 0)
7.197         (0.980557 2.07134e-05 0)
7.198         (0.980557 2.0713e-05 0)
7.199         (0.980558 2.07126e-05 0)
7.2           (0.980558 2.07122e-05 0)
7.201         (0.980558 2.07118e-05 0)
7.202         (0.980559 2.07114e-05 0)
7.203         (0.980559 2.0711e-05 0)
7.204         (0.98056 2.07106e-05 0)
7.205         (0.98056 2.07102e-05 0)
7.206         (0.98056 2.07099e-05 0)
7.207         (0.980561 2.07095e-05 0)
7.208         (0.980561 2.07091e-05 0)
7.209         (0.980561 2.07087e-05 0)
7.21          (0.980562 2.07083e-05 0)
7.211         (0.980562 2.07079e-05 0)
7.212         (0.980562 2.07075e-05 0)
7.213         (0.980563 2.07071e-05 0)
7.214         (0.980563 2.07067e-05 0)
7.215         (0.980564 2.07063e-05 0)
7.216         (0.980564 2.07059e-05 0)
7.217         (0.980564 2.07055e-05 0)
7.218         (0.980565 2.07051e-05 0)
7.219         (0.980565 2.07047e-05 0)
7.22          (0.980565 2.07043e-05 0)
7.221         (0.980566 2.07039e-05 0)
7.222         (0.980566 2.07036e-05 0)
7.223         (0.980567 2.07032e-05 0)
7.224         (0.980567 2.07028e-05 0)
7.225         (0.980567 2.07024e-05 0)
7.226         (0.980568 2.0702e-05 0)
7.227         (0.980568 2.07016e-05 0)
7.228         (0.980568 2.07012e-05 0)
7.229         (0.980569 2.07008e-05 0)
7.23          (0.980569 2.07004e-05 0)
7.231         (0.98057 2.07e-05 0)
7.232         (0.98057 2.06996e-05 0)
7.233         (0.98057 2.06992e-05 0)
7.234         (0.980571 2.06988e-05 0)
7.235         (0.980571 2.06984e-05 0)
7.236         (0.980571 2.0698e-05 0)
7.237         (0.980572 2.06976e-05 0)
7.238         (0.980572 2.06972e-05 0)
7.239         (0.980573 2.06968e-05 0)
7.24          (0.980573 2.06964e-05 0)
7.241         (0.980573 2.0696e-05 0)
7.242         (0.980574 2.06956e-05 0)
7.243         (0.980574 2.06952e-05 0)
7.244         (0.980574 2.06948e-05 0)
7.245         (0.980575 2.06944e-05 0)
7.246         (0.980575 2.0694e-05 0)
7.247         (0.980575 2.06936e-05 0)
7.248         (0.980576 2.06932e-05 0)
7.249         (0.980576 2.06928e-05 0)
7.25          (0.980577 2.06924e-05 0)
7.251         (0.980577 2.0692e-05 0)
7.252         (0.980577 2.06916e-05 0)
7.253         (0.980578 2.06912e-05 0)
7.254         (0.980578 2.06908e-05 0)
7.255         (0.980578 2.06904e-05 0)
7.256         (0.980579 2.069e-05 0)
7.257         (0.980579 2.06896e-05 0)
7.258         (0.98058 2.06891e-05 0)
7.259         (0.98058 2.06888e-05 0)
7.26          (0.98058 2.06883e-05 0)
7.261         (0.980581 2.06879e-05 0)
7.262         (0.980581 2.06875e-05 0)
7.263         (0.980581 2.06871e-05 0)
7.264         (0.980582 2.06867e-05 0)
7.265         (0.980582 2.06863e-05 0)
7.266         (0.980583 2.06859e-05 0)
7.267         (0.980583 2.06855e-05 0)
7.268         (0.980583 2.06851e-05 0)
7.269         (0.980584 2.06847e-05 0)
7.27          (0.980584 2.06843e-05 0)
7.271         (0.980584 2.06839e-05 0)
7.272         (0.980585 2.06835e-05 0)
7.273         (0.980585 2.06831e-05 0)
7.274         (0.980585 2.06826e-05 0)
7.275         (0.980586 2.06822e-05 0)
7.276         (0.980586 2.06818e-05 0)
7.277         (0.980587 2.06814e-05 0)
7.278         (0.980587 2.0681e-05 0)
7.279         (0.980587 2.06806e-05 0)
7.28          (0.980588 2.06802e-05 0)
7.281         (0.980588 2.06798e-05 0)
7.282         (0.980588 2.06794e-05 0)
7.283         (0.980589 2.0679e-05 0)
7.284         (0.980589 2.06785e-05 0)
7.285         (0.98059 2.06781e-05 0)
7.286         (0.98059 2.06777e-05 0)
7.287         (0.98059 2.06773e-05 0)
7.288         (0.980591 2.06769e-05 0)
7.289         (0.980591 2.06765e-05 0)
7.29          (0.980591 2.06761e-05 0)
7.291         (0.980592 2.06757e-05 0)
7.292         (0.980592 2.06753e-05 0)
7.293         (0.980593 2.06749e-05 0)
7.294         (0.980593 2.06744e-05 0)
7.295         (0.980593 2.0674e-05 0)
7.296         (0.980594 2.06736e-05 0)
7.297         (0.980594 2.06732e-05 0)
7.298         (0.980594 2.06728e-05 0)
7.299         (0.980595 2.06724e-05 0)
7.3           (0.980595 2.06719e-05 0)
7.301         (0.980596 2.06715e-05 0)
7.302         (0.980596 2.06711e-05 0)
7.303         (0.980596 2.06707e-05 0)
7.304         (0.980597 2.06703e-05 0)
7.305         (0.980597 2.06699e-05 0)
7.306         (0.980597 2.06695e-05 0)
7.307         (0.980598 2.06691e-05 0)
7.308         (0.980598 2.06686e-05 0)
7.309         (0.980598 2.06682e-05 0)
7.31          (0.980599 2.06678e-05 0)
7.311         (0.980599 2.06674e-05 0)
7.312         (0.9806 2.0667e-05 0)
7.313         (0.9806 2.06665e-05 0)
7.314         (0.9806 2.06661e-05 0)
7.315         (0.980601 2.06657e-05 0)
7.316         (0.980601 2.06653e-05 0)
7.317         (0.980601 2.06649e-05 0)
7.318         (0.980602 2.06645e-05 0)
7.319         (0.980602 2.0664e-05 0)
7.32          (0.980603 2.06636e-05 0)
7.321         (0.980603 2.06632e-05 0)
7.322         (0.980603 2.06628e-05 0)
7.323         (0.980604 2.06624e-05 0)
7.324         (0.980604 2.06619e-05 0)
7.325         (0.980604 2.06615e-05 0)
7.326         (0.980605 2.06611e-05 0)
7.327         (0.980605 2.06607e-05 0)
7.328         (0.980606 2.06603e-05 0)
7.329         (0.980606 2.06598e-05 0)
7.33          (0.980606 2.06594e-05 0)
7.331         (0.980607 2.0659e-05 0)
7.332         (0.980607 2.06586e-05 0)
7.333         (0.980607 2.06581e-05 0)
7.334         (0.980608 2.06577e-05 0)
7.335         (0.980608 2.06573e-05 0)
7.336         (0.980608 2.06569e-05 0)
7.337         (0.980609 2.06565e-05 0)
7.338         (0.980609 2.0656e-05 0)
7.339         (0.98061 2.06556e-05 0)
7.34          (0.98061 2.06552e-05 0)
7.341         (0.98061 2.06548e-05 0)
7.342         (0.980611 2.06543e-05 0)
7.343         (0.980611 2.06539e-05 0)
7.344         (0.980611 2.06535e-05 0)
7.345         (0.980612 2.06531e-05 0)
7.346         (0.980612 2.06526e-05 0)
7.347         (0.980613 2.06522e-05 0)
7.348         (0.980613 2.06518e-05 0)
7.349         (0.980613 2.06514e-05 0)
7.35          (0.980614 2.06509e-05 0)
7.351         (0.980614 2.06505e-05 0)
7.352         (0.980614 2.06501e-05 0)
7.353         (0.980615 2.06497e-05 0)
7.354         (0.980615 2.06492e-05 0)
7.355         (0.980616 2.06488e-05 0)
7.356         (0.980616 2.06484e-05 0)
7.357         (0.980616 2.0648e-05 0)
7.358         (0.980617 2.06475e-05 0)
7.359         (0.980617 2.06471e-05 0)
7.36          (0.980617 2.06467e-05 0)
7.361         (0.980618 2.06462e-05 0)
7.362         (0.980618 2.06458e-05 0)
7.363         (0.980618 2.06454e-05 0)
7.364         (0.980619 2.0645e-05 0)
7.365         (0.980619 2.06445e-05 0)
7.366         (0.98062 2.06441e-05 0)
7.367         (0.98062 2.06437e-05 0)
7.368         (0.98062 2.06432e-05 0)
7.369         (0.980621 2.06428e-05 0)
7.37          (0.980621 2.06424e-05 0)
7.371         (0.980621 2.06419e-05 0)
7.372         (0.980622 2.06415e-05 0)
7.373         (0.980622 2.06411e-05 0)
7.374         (0.980623 2.06407e-05 0)
7.375         (0.980623 2.06402e-05 0)
7.376         (0.980623 2.06398e-05 0)
7.377         (0.980624 2.06394e-05 0)
7.378         (0.980624 2.06389e-05 0)
7.379         (0.980624 2.06385e-05 0)
7.38          (0.980625 2.06381e-05 0)
7.381         (0.980625 2.06376e-05 0)
7.382         (0.980626 2.06372e-05 0)
7.383         (0.980626 2.06368e-05 0)
7.384         (0.980626 2.06363e-05 0)
7.385         (0.980627 2.06359e-05 0)
7.386         (0.980627 2.06355e-05 0)
7.387         (0.980627 2.0635e-05 0)
7.388         (0.980628 2.06346e-05 0)
7.389         (0.980628 2.06341e-05 0)
7.39          (0.980628 2.06337e-05 0)
7.391         (0.980629 2.06333e-05 0)
7.392         (0.980629 2.06328e-05 0)
7.393         (0.98063 2.06324e-05 0)
7.394         (0.98063 2.0632e-05 0)
7.395         (0.98063 2.06315e-05 0)
7.396         (0.980631 2.06311e-05 0)
7.397         (0.980631 2.06307e-05 0)
7.398         (0.980631 2.06302e-05 0)
7.399         (0.980632 2.06298e-05 0)
7.4           (0.980632 2.06294e-05 0)
7.401         (0.980633 2.06289e-05 0)
7.402         (0.980633 2.06285e-05 0)
7.403         (0.980633 2.0628e-05 0)
7.404         (0.980634 2.06276e-05 0)
7.405         (0.980634 2.06272e-05 0)
7.406         (0.980634 2.06267e-05 0)
7.407         (0.980635 2.06263e-05 0)
7.408         (0.980635 2.06259e-05 0)
7.409         (0.980636 2.06254e-05 0)
7.41          (0.980636 2.0625e-05 0)
7.411         (0.980636 2.06245e-05 0)
7.412         (0.980637 2.06241e-05 0)
7.413         (0.980637 2.06237e-05 0)
7.414         (0.980637 2.06232e-05 0)
7.415         (0.980638 2.06228e-05 0)
7.416         (0.980638 2.06223e-05 0)
7.417         (0.980638 2.06219e-05 0)
7.418         (0.980639 2.06215e-05 0)
7.419         (0.980639 2.0621e-05 0)
7.42          (0.98064 2.06206e-05 0)
7.421         (0.98064 2.06201e-05 0)
7.422         (0.98064 2.06197e-05 0)
7.423         (0.980641 2.06192e-05 0)
7.424         (0.980641 2.06188e-05 0)
7.425         (0.980641 2.06184e-05 0)
7.426         (0.980642 2.06179e-05 0)
7.427         (0.980642 2.06175e-05 0)
7.428         (0.980643 2.0617e-05 0)
7.429         (0.980643 2.06166e-05 0)
7.43          (0.980643 2.06161e-05 0)
7.431         (0.980644 2.06157e-05 0)
7.432         (0.980644 2.06153e-05 0)
7.433         (0.980644 2.06148e-05 0)
7.434         (0.980645 2.06144e-05 0)
7.435         (0.980645 2.06139e-05 0)
7.436         (0.980646 2.06135e-05 0)
7.437         (0.980646 2.0613e-05 0)
7.438         (0.980646 2.06126e-05 0)
7.439         (0.980647 2.06121e-05 0)
7.44          (0.980647 2.06117e-05 0)
7.441         (0.980647 2.06112e-05 0)
7.442         (0.980648 2.06108e-05 0)
7.443         (0.980648 2.06104e-05 0)
7.444         (0.980648 2.06099e-05 0)
7.445         (0.980649 2.06095e-05 0)
7.446         (0.980649 2.0609e-05 0)
7.447         (0.98065 2.06086e-05 0)
7.448         (0.98065 2.06081e-05 0)
7.449         (0.98065 2.06077e-05 0)
7.45          (0.980651 2.06072e-05 0)
7.451         (0.980651 2.06068e-05 0)
7.452         (0.980651 2.06063e-05 0)
7.453         (0.980652 2.06058e-05 0)
7.454         (0.980652 2.06054e-05 0)
7.455         (0.980653 2.0605e-05 0)
7.456         (0.980653 2.06045e-05 0)
7.457         (0.980653 2.06041e-05 0)
7.458         (0.980654 2.06036e-05 0)
7.459         (0.980654 2.06032e-05 0)
7.46          (0.980654 2.06027e-05 0)
7.461         (0.980655 2.06023e-05 0)
7.462         (0.980655 2.06018e-05 0)
7.463         (0.980655 2.06014e-05 0)
7.464         (0.980656 2.06009e-05 0)
7.465         (0.980656 2.06005e-05 0)
7.466         (0.980657 2.06e-05 0)
7.467         (0.980657 2.05996e-05 0)
7.468         (0.980657 2.05991e-05 0)
7.469         (0.980658 2.05987e-05 0)
7.47          (0.980658 2.05982e-05 0)
7.471         (0.980658 2.05978e-05 0)
7.472         (0.980659 2.05973e-05 0)
7.473         (0.980659 2.05969e-05 0)
7.474         (0.98066 2.05964e-05 0)
7.475         (0.98066 2.05959e-05 0)
7.476         (0.98066 2.05955e-05 0)
7.477         (0.980661 2.0595e-05 0)
7.478         (0.980661 2.05946e-05 0)
7.479         (0.980661 2.05941e-05 0)
7.48          (0.980662 2.05937e-05 0)
7.481         (0.980662 2.05932e-05 0)
7.482         (0.980663 2.05928e-05 0)
7.483         (0.980663 2.05923e-05 0)
7.484         (0.980663 2.05919e-05 0)
7.485         (0.980664 2.05914e-05 0)
7.486         (0.980664 2.05909e-05 0)
7.487         (0.980664 2.05905e-05 0)
7.488         (0.980665 2.059e-05 0)
7.489         (0.980665 2.05896e-05 0)
7.49          (0.980665 2.05891e-05 0)
7.491         (0.980666 2.05887e-05 0)
7.492         (0.980666 2.05882e-05 0)
7.493         (0.980667 2.05878e-05 0)
7.494         (0.980667 2.05873e-05 0)
7.495         (0.980667 2.05868e-05 0)
7.496         (0.980668 2.05864e-05 0)
7.497         (0.980668 2.05859e-05 0)
7.498         (0.980668 2.05855e-05 0)
7.499         (0.980669 2.0585e-05 0)
7.5           (0.980669 2.05845e-05 0)
7.501         (0.98067 2.05841e-05 0)
7.502         (0.98067 2.05836e-05 0)
7.503         (0.98067 2.05832e-05 0)
7.504         (0.980671 2.05827e-05 0)
7.505         (0.980671 2.05822e-05 0)
7.506         (0.980671 2.05818e-05 0)
7.507         (0.980672 2.05813e-05 0)
7.508         (0.980672 2.05809e-05 0)
7.509         (0.980672 2.05804e-05 0)
7.51          (0.980673 2.05799e-05 0)
7.511         (0.980673 2.05795e-05 0)
7.512         (0.980674 2.0579e-05 0)
7.513         (0.980674 2.05786e-05 0)
7.514         (0.980674 2.05781e-05 0)
7.515         (0.980675 2.05776e-05 0)
7.516         (0.980675 2.05772e-05 0)
7.517         (0.980675 2.05767e-05 0)
7.518         (0.980676 2.05763e-05 0)
7.519         (0.980676 2.05758e-05 0)
7.52          (0.980677 2.05753e-05 0)
7.521         (0.980677 2.05749e-05 0)
7.522         (0.980677 2.05744e-05 0)
7.523         (0.980678 2.05739e-05 0)
7.524         (0.980678 2.05735e-05 0)
7.525         (0.980678 2.0573e-05 0)
7.526         (0.980679 2.05725e-05 0)
7.527         (0.980679 2.05721e-05 0)
7.528         (0.98068 2.05716e-05 0)
7.529         (0.98068 2.05712e-05 0)
7.53          (0.98068 2.05707e-05 0)
7.531         (0.980681 2.05702e-05 0)
7.532         (0.980681 2.05698e-05 0)
7.533         (0.980681 2.05693e-05 0)
7.534         (0.980682 2.05688e-05 0)
7.535         (0.980682 2.05684e-05 0)
7.536         (0.980682 2.05679e-05 0)
7.537         (0.980683 2.05674e-05 0)
7.538         (0.980683 2.0567e-05 0)
7.539         (0.980684 2.05665e-05 0)
7.54          (0.980684 2.0566e-05 0)
7.541         (0.980684 2.05656e-05 0)
7.542         (0.980685 2.05651e-05 0)
7.543         (0.980685 2.05646e-05 0)
7.544         (0.980685 2.05642e-05 0)
7.545         (0.980686 2.05637e-05 0)
7.546         (0.980686 2.05632e-05 0)
7.547         (0.980687 2.05628e-05 0)
7.548         (0.980687 2.05623e-05 0)
7.549         (0.980687 2.05618e-05 0)
7.55          (0.980688 2.05613e-05 0)
7.551         (0.980688 2.05609e-05 0)
7.552         (0.980688 2.05604e-05 0)
7.553         (0.980689 2.05599e-05 0)
7.554         (0.980689 2.05595e-05 0)
7.555         (0.980689 2.0559e-05 0)
7.556         (0.98069 2.05585e-05 0)
7.557         (0.98069 2.05581e-05 0)
7.558         (0.980691 2.05576e-05 0)
7.559         (0.980691 2.05571e-05 0)
7.56          (0.980691 2.05566e-05 0)
7.561         (0.980692 2.05562e-05 0)
7.562         (0.980692 2.05557e-05 0)
7.563         (0.980692 2.05552e-05 0)
7.564         (0.980693 2.05548e-05 0)
7.565         (0.980693 2.05543e-05 0)
7.566         (0.980694 2.05538e-05 0)
7.567         (0.980694 2.05533e-05 0)
7.568         (0.980694 2.05529e-05 0)
7.569         (0.980695 2.05524e-05 0)
7.57          (0.980695 2.05519e-05 0)
7.571         (0.980695 2.05515e-05 0)
7.572         (0.980696 2.0551e-05 0)
7.573         (0.980696 2.05505e-05 0)
7.574         (0.980696 2.055e-05 0)
7.575         (0.980697 2.05496e-05 0)
7.576         (0.980697 2.05491e-05 0)
7.577         (0.980698 2.05486e-05 0)
7.578         (0.980698 2.05481e-05 0)
7.579         (0.980698 2.05477e-05 0)
7.58          (0.980699 2.05472e-05 0)
7.581         (0.980699 2.05467e-05 0)
7.582         (0.980699 2.05462e-05 0)
7.583         (0.9807 2.05458e-05 0)
7.584         (0.9807 2.05453e-05 0)
7.585         (0.980701 2.05448e-05 0)
7.586         (0.980701 2.05443e-05 0)
7.587         (0.980701 2.05439e-05 0)
7.588         (0.980702 2.05434e-05 0)
7.589         (0.980702 2.05429e-05 0)
7.59          (0.980702 2.05424e-05 0)
7.591         (0.980703 2.05419e-05 0)
7.592         (0.980703 2.05415e-05 0)
7.593         (0.980704 2.0541e-05 0)
7.594         (0.980704 2.05405e-05 0)
7.595         (0.980704 2.054e-05 0)
7.596         (0.980705 2.05396e-05 0)
7.597         (0.980705 2.05391e-05 0)
7.598         (0.980705 2.05386e-05 0)
7.599         (0.980706 2.05381e-05 0)
7.6           (0.980706 2.05376e-05 0)
7.601         (0.980706 2.05372e-05 0)
7.602         (0.980707 2.05367e-05 0)
7.603         (0.980707 2.05362e-05 0)
7.604         (0.980708 2.05357e-05 0)
7.605         (0.980708 2.05352e-05 0)
7.606         (0.980708 2.05348e-05 0)
7.607         (0.980709 2.05343e-05 0)
7.608         (0.980709 2.05338e-05 0)
7.609         (0.980709 2.05333e-05 0)
7.61          (0.98071 2.05328e-05 0)
7.611         (0.98071 2.05324e-05 0)
7.612         (0.980711 2.05319e-05 0)
7.613         (0.980711 2.05314e-05 0)
7.614         (0.980711 2.05309e-05 0)
7.615         (0.980712 2.05304e-05 0)
7.616         (0.980712 2.05299e-05 0)
7.617         (0.980712 2.05295e-05 0)
7.618         (0.980713 2.0529e-05 0)
7.619         (0.980713 2.05285e-05 0)
7.62          (0.980713 2.0528e-05 0)
7.621         (0.980714 2.05275e-05 0)
7.622         (0.980714 2.0527e-05 0)
7.623         (0.980715 2.05266e-05 0)
7.624         (0.980715 2.05261e-05 0)
7.625         (0.980715 2.05256e-05 0)
7.626         (0.980716 2.05251e-05 0)
7.627         (0.980716 2.05246e-05 0)
7.628         (0.980716 2.05241e-05 0)
7.629         (0.980717 2.05237e-05 0)
7.63          (0.980717 2.05232e-05 0)
7.631         (0.980718 2.05227e-05 0)
7.632         (0.980718 2.05222e-05 0)
7.633         (0.980718 2.05217e-05 0)
7.634         (0.980719 2.05212e-05 0)
7.635         (0.980719 2.05207e-05 0)
7.636         (0.980719 2.05203e-05 0)
7.637         (0.98072 2.05198e-05 0)
7.638         (0.98072 2.05193e-05 0)
7.639         (0.98072 2.05188e-05 0)
7.64          (0.980721 2.05183e-05 0)
7.641         (0.980721 2.05178e-05 0)
7.642         (0.980722 2.05173e-05 0)
7.643         (0.980722 2.05168e-05 0)
7.644         (0.980722 2.05164e-05 0)
7.645         (0.980723 2.05159e-05 0)
7.646         (0.980723 2.05154e-05 0)
7.647         (0.980723 2.05149e-05 0)
7.648         (0.980724 2.05144e-05 0)
7.649         (0.980724 2.05139e-05 0)
7.65          (0.980725 2.05134e-05 0)
7.651         (0.980725 2.05129e-05 0)
7.652         (0.980725 2.05125e-05 0)
7.653         (0.980726 2.0512e-05 0)
7.654         (0.980726 2.05115e-05 0)
7.655         (0.980726 2.0511e-05 0)
7.656         (0.980727 2.05105e-05 0)
7.657         (0.980727 2.051e-05 0)
7.658         (0.980727 2.05095e-05 0)
7.659         (0.980728 2.0509e-05 0)
7.66          (0.980728 2.05085e-05 0)
7.661         (0.980729 2.0508e-05 0)
7.662         (0.980729 2.05075e-05 0)
7.663         (0.980729 2.05071e-05 0)
7.664         (0.98073 2.05066e-05 0)
7.665         (0.98073 2.05061e-05 0)
7.666         (0.98073 2.05056e-05 0)
7.667         (0.980731 2.05051e-05 0)
7.668         (0.980731 2.05046e-05 0)
7.669         (0.980732 2.05041e-05 0)
7.67          (0.980732 2.05036e-05 0)
7.671         (0.980732 2.05031e-05 0)
7.672         (0.980733 2.05026e-05 0)
7.673         (0.980733 2.05021e-05 0)
7.674         (0.980733 2.05016e-05 0)
7.675         (0.980734 2.05011e-05 0)
7.676         (0.980734 2.05006e-05 0)
7.677         (0.980734 2.05002e-05 0)
7.678         (0.980735 2.04997e-05 0)
7.679         (0.980735 2.04992e-05 0)
7.68          (0.980736 2.04987e-05 0)
7.681         (0.980736 2.04982e-05 0)
7.682         (0.980736 2.04977e-05 0)
7.683         (0.980737 2.04972e-05 0)
7.684         (0.980737 2.04967e-05 0)
7.685         (0.980737 2.04962e-05 0)
7.686         (0.980738 2.04957e-05 0)
7.687         (0.980738 2.04952e-05 0)
7.688         (0.980739 2.04947e-05 0)
7.689         (0.980739 2.04942e-05 0)
7.69          (0.980739 2.04937e-05 0)
7.691         (0.98074 2.04932e-05 0)
7.692         (0.98074 2.04927e-05 0)
7.693         (0.98074 2.04922e-05 0)
7.694         (0.980741 2.04917e-05 0)
7.695         (0.980741 2.04912e-05 0)
7.696         (0.980741 2.04907e-05 0)
7.697         (0.980742 2.04902e-05 0)
7.698         (0.980742 2.04897e-05 0)
7.699         (0.980743 2.04892e-05 0)
7.7           (0.980743 2.04887e-05 0)
7.701         (0.980743 2.04883e-05 0)
7.702         (0.980744 2.04878e-05 0)
7.703         (0.980744 2.04873e-05 0)
7.704         (0.980744 2.04868e-05 0)
7.705         (0.980745 2.04863e-05 0)
7.706         (0.980745 2.04857e-05 0)
7.707         (0.980746 2.04852e-05 0)
7.708         (0.980746 2.04847e-05 0)
7.709         (0.980746 2.04842e-05 0)
7.71          (0.980747 2.04837e-05 0)
7.711         (0.980747 2.04832e-05 0)
7.712         (0.980747 2.04827e-05 0)
7.713         (0.980748 2.04822e-05 0)
7.714         (0.980748 2.04817e-05 0)
7.715         (0.980748 2.04812e-05 0)
7.716         (0.980749 2.04807e-05 0)
7.717         (0.980749 2.04802e-05 0)
7.718         (0.98075 2.04797e-05 0)
7.719         (0.98075 2.04792e-05 0)
7.72          (0.98075 2.04787e-05 0)
7.721         (0.980751 2.04782e-05 0)
7.722         (0.980751 2.04777e-05 0)
7.723         (0.980751 2.04772e-05 0)
7.724         (0.980752 2.04767e-05 0)
7.725         (0.980752 2.04762e-05 0)
7.726         (0.980753 2.04757e-05 0)
7.727         (0.980753 2.04752e-05 0)
7.728         (0.980753 2.04747e-05 0)
7.729         (0.980754 2.04742e-05 0)
7.73          (0.980754 2.04737e-05 0)
7.731         (0.980754 2.04732e-05 0)
7.732         (0.980755 2.04727e-05 0)
7.733         (0.980755 2.04722e-05 0)
7.734         (0.980755 2.04717e-05 0)
7.735         (0.980756 2.04712e-05 0)
7.736         (0.980756 2.04707e-05 0)
7.737         (0.980757 2.04702e-05 0)
7.738         (0.980757 2.04697e-05 0)
7.739         (0.980757 2.04692e-05 0)
7.74          (0.980758 2.04687e-05 0)
7.741         (0.980758 2.04682e-05 0)
7.742         (0.980758 2.04676e-05 0)
7.743         (0.980759 2.04671e-05 0)
7.744         (0.980759 2.04666e-05 0)
7.745         (0.98076 2.04661e-05 0)
7.746         (0.98076 2.04656e-05 0)
7.747         (0.98076 2.04651e-05 0)
7.748         (0.980761 2.04646e-05 0)
7.749         (0.980761 2.04641e-05 0)
7.75          (0.980761 2.04636e-05 0)
7.751         (0.980762 2.04631e-05 0)
7.752         (0.980762 2.04626e-05 0)
7.753         (0.980762 2.04621e-05 0)
7.754         (0.980763 2.04616e-05 0)
7.755         (0.980763 2.0461e-05 0)
7.756         (0.980764 2.04605e-05 0)
7.757         (0.980764 2.046e-05 0)
7.758         (0.980764 2.04595e-05 0)
7.759         (0.980765 2.0459e-05 0)
7.76          (0.980765 2.04585e-05 0)
7.761         (0.980765 2.0458e-05 0)
7.762         (0.980766 2.04575e-05 0)
7.763         (0.980766 2.0457e-05 0)
7.764         (0.980767 2.04565e-05 0)
7.765         (0.980767 2.04559e-05 0)
7.766         (0.980767 2.04554e-05 0)
7.767         (0.980768 2.04549e-05 0)
7.768         (0.980768 2.04544e-05 0)
7.769         (0.980768 2.04539e-05 0)
7.77          (0.980769 2.04534e-05 0)
7.771         (0.980769 2.04529e-05 0)
7.772         (0.980769 2.04524e-05 0)