# Probe 0 (0.5 0.5 0.05)
# Time        0            
0.001         0.0747331    
0.002         0.0658362    
0.003         0.0585507    
0.004         0.0525242    
0.005         0.0475128    
0.006         0.0433221    
0.007         0.0397971    
0.008         0.0368135    
0.009         0.0342723    
0.01          0.0320937    
0.011         0.0302142    
0.012         0.0285818    
0.013         0.0271548    
0.014         0.0258992    
0.015         0.0247873    
0.016         0.0237967    
0.017         0.0229089    
0.018         0.0221088    
0.019         0.0213838    
0.02          0.0207234    
0.021         0.0200776    
0.022         0.0195275    
0.023         0.0190168    
0.024         0.0185436    
0.025         0.0181032    
0.026         0.0176923    
0.027         0.0173075    
0.028         0.0169461    
0.029         0.0166057    
0.03          0.0162844    
0.031         0.0159803    
0.032         0.015692     
0.033         0.0154179    
0.034         0.0151571    
0.035         0.0149083    
0.036         0.0146707    
0.037         0.0144433    
0.038         0.0142255    
0.039         0.0140165    
0.04          0.0138157    
0.041         0.0136226    
0.042         0.0134368    
0.043         0.0132577    
0.044         0.0130848    
0.045         0.0129178    
0.046         0.0127565    
0.047         0.0126003    
0.048         0.012449     
0.049         0.0123027    
0.05          0.0121606    
0.051         0.0120228    
0.052         0.011889     
0.053         0.0117588    
0.054         0.0116323    
0.055         0.0115092    
0.056         0.0113884    
0.057         0.0112718    
0.058         0.011158     
0.059         0.0110471    
0.06          0.0109389    
0.061         0.0108334    
0.062         0.0107302    
0.063         0.0106293    
0.064         0.0105309    
0.065         0.0104347    
0.066         0.0103403    
0.067         0.010248     
0.068         0.0101577    
0.069         0.0100693    
0.07          0.00998269   
0.071         0.0098978    
0.072         0.00981458   
0.073         0.00973297   
0.074         0.00965289   
0.075         0.00957424   
0.076         0.00949709   
0.077         0.00942134   
0.078         0.00934692   
0.079         0.00927384   
0.08          0.00920198   
0.081         0.00913135   
0.082         0.00906188   
0.083         0.00899355   
0.084         0.00892642   
0.085         0.00886032   
0.086         0.00879511   
0.087         0.00873099   
0.088         0.00866795   
0.089         0.00860579   
0.09          0.00854452   
0.091         0.00848416   
0.092         0.00842468   
0.093         0.00836605   
0.094         0.00830824   
0.095         0.00825138   
0.096         0.00819507   
0.097         0.0081395    
0.098         0.00808477   
0.099         0.00803077   
0.1           0.00797746   
0.101         0.00792481   
0.102         0.00787283   
0.103         0.00782149   
0.104         0.00777078   
0.105         0.00772068   
0.106         0.00767127   
0.107         0.0076223    
0.108         0.00757397   
0.109         0.00752619   
0.11          0.00747891   
0.111         0.00743222   
0.112         0.00738609   
0.113         0.00734043   
0.114         0.00729514   
0.115         0.0072504    
0.116         0.00720626   
0.117         0.00716244   
0.118         0.00711921   
0.119         0.00707634   
0.12          0.00703375   
0.121         0.00699175   
0.122         0.00695013   
0.123         0.00690892   
0.124         0.00686811   
0.125         0.00682769   
0.126         0.00678767   
0.127         0.00674799   
0.128         0.00670868   
0.129         0.00666982   
0.13          0.0066313    
0.131         0.00659298   
0.132         0.00655506   
0.133         0.00651748   
0.134         0.00648017   
0.135         0.0064432    
0.136         0.00640661   
0.137         0.00637026   
0.138         0.00633414   
0.139         0.0062984    
0.14          0.00626297   
0.141         0.00622794   
0.142         0.006193     
0.143         0.00615824   
0.144         0.00612389   
0.145         0.00608978   
0.146         0.00605599   
0.147         0.00602246   
0.148         0.00598915   
0.149         0.005956     
0.15          0.0059231    
0.151         0.00589047   
0.152         0.00585806   
0.153         0.00582589   
0.154         0.00579393   
0.155         0.00576222   
0.156         0.00573072   
0.157         0.00569959   
0.158         0.00566843   
0.159         0.00563754   
0.16          0.00560679   
0.161         0.00557623   
0.162         0.00554594   
0.163         0.00551588   
0.164         0.00548605   
0.165         0.00545632   
0.166         0.00542669   
0.167         0.00539727   
0.168         0.00536809   
0.169         0.00533921   
0.17          0.00531024   
0.171         0.00528157   
0.172         0.00525305   
0.173         0.00522477   
0.174         0.00519656   
0.175         0.00516847   
0.176         0.0051406    
0.177         0.00511292   
0.178         0.00508537   
0.179         0.00505798   
0.18          0.00503061   
0.181         0.00500361   
0.182         0.00497665   
0.183         0.00494982   
0.184         0.00492303   
0.185         0.00489644   
0.186         0.00487      
0.187         0.00484372   
0.188         0.00481748   
0.189         0.00479153   
0.19          0.00476558   
0.191         0.00473977   
0.192         0.00471398   
0.193         0.00468843   
0.194         0.00466317   
0.195         0.00463786   
0.196         0.0046127    
0.197         0.00458754   
0.198         0.00456243   
0.199         0.00453785   
0.2           0.00451295   
0.201         0.0044883    
0.202         0.00446374   
0.203         0.0044393    
0.204         0.00441497   
0.205         0.00439074   
0.206         0.0043667    
0.207         0.00434281   
0.208         0.00431876   
0.209         0.00429475   
0.21          0.00427111   
0.211         0.00424747   
0.212         0.0042239    
0.213         0.00420042   
0.214         0.00417714   
0.215         0.00415381   
0.216         0.0041306    
0.217         0.00410745   
0.218         0.00408442   
0.219         0.00406156   
0.22          0.00403874   
0.221         0.00401593   
0.222         0.00399331   
0.223         0.00397067   
0.224         0.00394819   
0.225         0.0039257    
0.226         0.00390338   
0.227         0.00388102   
0.228         0.00385899   
0.229         0.0038368    
0.23          0.00381486   
0.231         0.003793     
0.232         0.00377095   
0.233         0.00374897   
0.234         0.00372726   
0.235         0.00370562   
0.236         0.00368388   
0.237         0.00366235   
0.238         0.00364081   
0.239         0.00361946   
0.24          0.00359807   
0.241         0.00357677   
0.242         0.00355551   
0.243         0.00353441   
0.244         0.00351331   
0.245         0.00349225   
0.246         0.00347128   
0.247         0.00345036   
0.248         0.0034295    
0.249         0.00340869   
0.25          0.00338796   
0.251         0.0033672    
0.252         0.00334681   
0.253         0.00332618   
0.254         0.00330571   
0.255         0.00328526   
0.256         0.00326483   
0.257         0.00324453   
0.258         0.00322422   
0.259         0.00320381   
0.26          0.00318379   
0.261         0.00316358   
0.262         0.00314352   
0.263         0.00312353   
0.264         0.00310351   
0.265         0.00308358   
0.266         0.00306373   
0.267         0.00304392   
0.268         0.00302412   
0.269         0.00300439   
0.27          0.00298471   
0.271         0.00296507   
0.272         0.00294552   
0.273         0.00292599   
0.274         0.00290648   
0.275         0.00288704   
0.276         0.00286763   
0.277         0.00284825   
0.278         0.00282899   
0.279         0.00280969   
0.28          0.00279044   
0.281         0.00277124   
0.282         0.00275198   
0.283         0.0027329    
0.284         0.00271384   
0.285         0.00269488   
0.286         0.00267583   
0.287         0.00265684   
0.288         0.00263805   
0.289         0.00261914   
0.29          0.00260029   
0.291         0.0025816    
0.292         0.00256276   
0.293         0.00254404   
0.294         0.00252524   
0.295         0.00250674   
0.296         0.00248808   
0.297         0.00246956   
0.298         0.00245098   
0.299         0.00243254   
0.3           0.00241408   
0.301         0.00239568   
0.302         0.00237738   
0.303         0.00235873   
0.304         0.00234062   
0.305         0.0023223    
0.306         0.00230403   
0.307         0.00228581   
0.308         0.00226763   
0.309         0.0022495    
0.31          0.00223136   
0.311         0.00221322   
0.312         0.00219517   
0.313         0.00217712   
0.314         0.00215916   
0.315         0.00214118   
0.316         0.00212326   
0.317         0.00210534   
0.318         0.00208744   
0.319         0.00206952   
0.32          0.00205185   
0.321         0.00203403   
0.322         0.00201629   
0.323         0.00199861   
0.324         0.00198085   
0.325         0.00196317   
0.326         0.0019456    
0.327         0.00192791   
0.328         0.00191      
0.329         0.00189262   
0.33          0.00187516   
0.331         0.00185749   
0.332         0.00184022   
0.333         0.00182273   
0.334         0.0018052    
0.335         0.00178783   
0.336         0.00177057   
0.337         0.00175331   
0.338         0.00173595   
0.339         0.00171863   
0.34          0.00170136   
0.341         0.0016841    
0.342         0.00166685   
0.343         0.0016495    
0.344         0.00163243   
0.345         0.00161527   
0.346         0.0015982    
0.347         0.0015811    
0.348         0.00156406   
0.349         0.00154696   
0.35          0.00153      
0.351         0.00151294   
0.352         0.00149603   
0.353         0.00147895   
0.354         0.00146207   
0.355         0.00144521   
0.356         0.00142819   
0.357         0.00141131   
0.358         0.00139452   
0.359         0.00137776   
0.36          0.00136097   
0.361         0.00134411   
0.362         0.00132735   
0.363         0.00131064   
0.364         0.00129391   
0.365         0.00127723   
0.366         0.00126049   
0.367         0.00124382   
0.368         0.00122721   
0.369         0.00121082   
0.37          0.00119415   
0.371         0.00117756   
0.372         0.00116103   
0.373         0.00114449   
0.374         0.00112802   
0.375         0.00111163   
0.376         0.00109482   
0.377         0.00107866   
0.378         0.00106215   
0.379         0.00104578   
0.38          0.0010294    
0.381         0.001013     
0.382         0.000996661  
0.383         0.000980336  
0.384         0.000964009  
0.385         0.000947635  
0.386         0.000931449  
0.387         0.000915232  
0.388         0.000898997  
0.389         0.000882742  
0.39          0.000866602  
0.391         0.000850479  
0.392         0.000834314  
0.393         0.000818153  
0.394         0.000802028  
0.395         0.000785925  
0.396         0.000769853  
0.397         0.000753789  
0.398         0.000737692  
0.399         0.000721672  
0.4           0.000705862  
0.401         0.000689614  
0.402         0.000673746  
0.403         0.000657675  
0.404         0.000641763  
0.405         0.000625869  
0.406         0.000609965  
0.407         0.000594034  
0.408         0.000578207  
0.409         0.000562334  
0.41          0.000546513  
0.411         0.000530731  
0.412         0.000514918  
0.413         0.000499126  
0.414         0.000483312  
0.415         0.000467593  
0.416         0.000451904  
0.417         0.000436185  
0.418         0.000420495  
0.419         0.000404819  
0.42          0.000389157  
0.421         0.00037348   
0.422         0.000357881  
0.423         0.000342264  
0.424         0.000326669  
0.425         0.000311169  
0.426         0.000295516  
0.427         0.000279783  
0.428         0.000264371  
0.429         0.00024891   
0.43          0.000233495  
0.431         0.000217888  
0.432         0.000202451  
0.433         0.000187104  
0.434         0.000171635  
0.435         0.000156196  
0.436         0.000140827  
0.437         0.000125409  
0.438         0.000110027  
0.439         9.46344e-05  
0.44          7.93062e-05  
0.441         6.40109e-05  
0.442         4.86065e-05  
0.443         3.34225e-05  
0.444         1.80688e-05  
0.445         2.97524e-06  
0.446         -1.22511e-05 
0.447         -2.7486e-05  
0.448         -4.27241e-05 
0.449         -5.79006e-05 
0.45          -7.30595e-05 
0.451         -8.81066e-05 
0.452         -0.000103336 
0.453         -0.000118532 
0.454         -0.000133617 
0.455         -0.000148614 
0.456         -0.000163872 
0.457         -0.000178872 
0.458         -0.000193967 
0.459         -0.000209011 
0.46          -0.000223977 
0.461         -0.000238983 
0.462         -0.000253954 
0.463         -0.000268957 
0.464         -0.000283954 
0.465         -0.00029876  
0.466         -0.000313629 
0.467         -0.000328521 
0.468         -0.000343458 
0.469         -0.00035833  
0.47          -0.000373173 
0.471         -0.000387989 
0.472         -0.000402874 
0.473         -0.000417593 
0.474         -0.000432458 
0.475         -0.00044727  
0.476         -0.00046195  
0.477         -0.000476748 
0.478         -0.000491319 
0.479         -0.000506185 
0.48          -0.00052091  
0.481         -0.000535577 
0.482         -0.000550232 
0.483         -0.000564947 
0.484         -0.000579692 
0.485         -0.000594143 
0.486         -0.000608692 
0.487         -0.000623124 
0.488         -0.000637892 
0.489         -0.000652332 
0.49          -0.000666903 
0.491         -0.000681445 
0.492         -0.000695912 
0.493         -0.000710449 
0.494         -0.000724968 
0.495         -0.000739245 
0.496         -0.000753713 
0.497         -0.000768129 
0.498         -0.000782525 
0.499         -0.000796914 
0.5           -0.000811274 
0.501         -0.000825565 
0.502         -0.000839975 
0.503         -0.000854292 
0.504         -0.000868553 
0.505         -0.000882709 
0.506         -0.000897222 
0.507         -0.000911244 
0.508         -0.000925808 
0.509         -0.000939874 
0.51          -0.000953978 
0.511         -0.000968219 
0.512         -0.000982477 
0.513         -0.000996573 
0.514         -0.00101074  
0.515         -0.00102491  
0.516         -0.00103901  
0.517         -0.00105301  
0.518         -0.00106704  
0.519         -0.00108111  
0.52          -0.00109516  
0.521         -0.00110915  
0.522         -0.00112318  
0.523         -0.00113718  
0.524         -0.00115108  
0.525         -0.00116505  
0.526         -0.00117897  
0.527         -0.00119286  
0.528         -0.00120674  
0.529         -0.00122064  
0.53          -0.00123447  
0.531         -0.00124832  
0.532         -0.0012621   
0.533         -0.0012758   
0.534         -0.00128977  
0.535         -0.00130342  
0.536         -0.0013173   
0.537         -0.00133102  
0.538         -0.00134472  
0.539         -0.00135827  
0.54          -0.00137212  
0.541         -0.00138594  
0.542         -0.00139941  
0.543         -0.00141298  
0.544         -0.00142638  
0.545         -0.00144028  
0.546         -0.00145377  
0.547         -0.0014673   
0.548         -0.00148093  
0.549         -0.00149453  
0.55          -0.00150785  
0.551         -0.00152127  
0.552         -0.00153471  
0.553         -0.00154814  
0.554         -0.00156162  
0.555         -0.00157502  
0.556         -0.00158843  
0.557         -0.00160178  
0.558         -0.00161511  
0.559         -0.00162846  
0.56          -0.00164176  
0.561         -0.00165507  
0.562         -0.00166803  
0.563         -0.00168159  
0.564         -0.00169467  
0.565         -0.00170801  
0.566         -0.0017211   
0.567         -0.0017343   
0.568         -0.00174737  
0.569         -0.00176067  
0.57          -0.0017738   
0.571         -0.00178675  
0.572         -0.00179986  
0.573         -0.00181289  
0.574         -0.00182591  
0.575         -0.00183901  
0.576         -0.00185195  
0.577         -0.00186495  
0.578         -0.0018781   
0.579         -0.00189074  
0.58          -0.00190365  
0.581         -0.00191659  
0.582         -0.00192945  
0.583         -0.00194226  
0.584         -0.00195512  
0.585         -0.00196794  
0.586         -0.00198074  
0.587         -0.00199341  
0.588         -0.00200626  
0.589         -0.00201902  
0.59          -0.00203179  
0.591         -0.00204421  
0.592         -0.00205679  
0.593         -0.00206957  
0.594         -0.00208222  
0.595         -0.00209494  
0.596         -0.00210748  
0.597         -0.0021201   
0.598         -0.00213249  
0.599         -0.00214507  
0.6           -0.00215758  
0.601         -0.00217002  
0.602         -0.00218253  
0.603         -0.00219486  
0.604         -0.00220716  
0.605         -0.00221969  
0.606         -0.00223205  
0.607         -0.00224436  
0.608         -0.00225669  
0.609         -0.002269    
0.61          -0.0022812   
0.611         -0.0022934   
0.612         -0.00230572  
0.613         -0.00231796  
0.614         -0.00233008  
0.615         -0.00234222  
0.616         -0.00235439  
0.617         -0.00236671  
0.618         -0.00237861  
0.619         -0.00239058  
0.62          -0.00240256  
0.621         -0.00241476  
0.622         -0.00242649  
0.623         -0.00243846  
0.624         -0.00245046  
0.625         -0.00246225  
0.626         -0.00247447  
0.627         -0.00248621  
0.628         -0.00249814  
0.629         -0.00250982  
0.63          -0.00252178  
0.631         -0.00253361  
0.632         -0.00254529  
0.633         -0.00255702  
0.634         -0.00256879  
0.635         -0.00258048  
0.636         -0.00259216  
0.637         -0.00260371  
0.638         -0.00261534  
0.639         -0.00262697  
0.64          -0.00263856  
0.641         -0.00264998  
0.642         -0.0026615   
0.643         -0.00267303  
0.644         -0.00268455  
0.645         -0.00269586  
0.646         -0.00270732  
0.647         -0.00271872  
0.648         -0.00273012  
0.649         -0.00274142  
0.65          -0.00275272  
0.651         -0.00276396  
0.652         -0.00277527  
0.653         -0.00278637  
0.654         -0.00279777  
0.655         -0.00280904  
0.656         -0.00281998  
0.657         -0.00283126  
0.658         -0.00284242  
0.659         -0.00285349  
0.66          -0.00286448  
0.661         -0.00287534  
0.662         -0.00288666  
0.663         -0.00289762  
0.664         -0.00290853  
0.665         -0.00291938  
0.666         -0.00293044  
0.667         -0.00294125  
0.668         -0.00295212  
0.669         -0.00296283  
0.67          -0.00297371  
0.671         -0.00298454  
0.672         -0.00299527  
0.673         -0.00300596  
0.674         -0.00301659  
0.675         -0.00302725  
0.676         -0.00303797  
0.677         -0.0030485   
0.678         -0.00305912  
0.679         -0.0030697   
0.68          -0.00308023  
0.681         -0.00309072  
0.682         -0.00310117  
0.683         -0.00311155  
0.684         -0.00312208  
0.685         -0.00313218  
0.686         -0.00314255  
0.687         -0.00315325  
0.688         -0.00316345  
0.689         -0.00317356  
0.69          -0.00318412  
0.691         -0.00319431  
0.692         -0.00320446  
0.693         -0.00321458  
0.694         -0.00322482  
0.695         -0.00323522  
0.696         -0.00324491  
0.697         -0.00325497  
0.698         -0.00326496  
0.699         -0.00327502  
0.7           -0.00328522  
0.701         -0.00329486  
0.702         -0.00330473  
0.703         -0.00331456  
0.704         -0.00332447  
0.705         -0.00333429  
0.706         -0.00334408  
0.707         -0.00335379  
0.708         -0.00336363  
0.709         -0.00337333  
0.71          -0.003383    
0.711         -0.00339265  
0.712         -0.00340225  
0.713         -0.00341204  
0.714         -0.00342146  
0.715         -0.00343095  
0.716         -0.0034405   
0.717         -0.00344984  
0.718         -0.00345908  
0.719         -0.00346846  
0.72          -0.00347821  
0.721         -0.0034876   
0.722         -0.00349661  
0.723         -0.00350627  
0.724         -0.00351549  
0.725         -0.0035247   
0.726         -0.00353387  
0.727         -0.00354282  
0.728         -0.00355229  
0.729         -0.00356139  
0.73          -0.00357036  
0.731         -0.00357949  
0.732         -0.00358849  
0.733         -0.00359737  
0.734         -0.00360648  
0.735         -0.00361534  
0.736         -0.00362429  
0.737         -0.00363314  
0.738         -0.00364199  
0.739         -0.00365076  
0.74          -0.00365951  
0.741         -0.00366814  
0.742         -0.00367708  
0.743         -0.00368565  
0.744         -0.00369437  
0.745         -0.00370297  
0.746         -0.00371168  
0.747         -0.00372002  
0.748         -0.00372856  
0.749         -0.00373707  
0.75          -0.00374549  
0.751         -0.00375377  
0.752         -0.00376209  
0.753         -0.00377064  
0.754         -0.00377912  
0.755         -0.0037874   
0.756         -0.00379546  
0.757         -0.003804    
0.758         -0.00381239  
0.759         -0.00382034  
0.76          -0.00382849  
0.761         -0.00383646  
0.762         -0.00384469  
0.763         -0.00385275  
0.764         -0.00386078  
0.765         -0.00386873  
0.766         -0.0038767   
0.767         -0.0038846   
0.768         -0.00389236  
0.769         -0.00390052  
0.77          -0.00390822  
0.771         -0.00391607  
0.772         -0.00392384  
0.773         -0.00393152  
0.774         -0.00393926  
0.775         -0.00394698  
0.776         -0.00395458  
0.777         -0.00396199  
0.778         -0.00396954  
0.779         -0.0039771   
0.78          -0.00398454  
0.781         -0.00399209  
0.782         -0.00399952  
0.783         -0.00400692  
0.784         -0.00401429  
0.785         -0.00402167  
0.786         -0.00402913  
0.787         -0.00403585  
0.788         -0.00404316  
0.789         -0.00405056  
0.79          -0.00405775  
0.791         -0.00406478  
0.792         -0.00407204  
0.793         -0.00407916  
0.794         -0.00408634  
0.795         -0.00409305  
0.796         -0.00409995  
0.797         -0.004107    
0.798         -0.0041141   
0.799         -0.0041209   
0.8           -0.00412771  
0.801         -0.00413452  
0.802         -0.00414151  
0.803         -0.00414799  
0.804         -0.00415479  
0.805         -0.00416126  
0.806         -0.00416802  
0.807         -0.00417467  
0.808         -0.0041812   
0.809         -0.00418769  
0.81          -0.00419424  
0.811         -0.00420069  
0.812         -0.00420723  
0.813         -0.00421352  
0.814         -0.00421991  
0.815         -0.00422624  
0.816         -0.00423256  
0.817         -0.00423883  
0.818         -0.00424507  
0.819         -0.00425132  
0.82          -0.00425748  
0.821         -0.00426359  
0.822         -0.00426967  
0.823         -0.00427561  
0.824         -0.00428167  
0.825         -0.00428769  
0.826         -0.00429385  
0.827         -0.00429973  
0.828         -0.0043054   
0.829         -0.00431182  
0.83          -0.00431714  
0.831         -0.00432305  
0.832         -0.00432884  
0.833         -0.00433431  
0.834         -0.00434045  
0.835         -0.00434598  
0.836         -0.00435149  
0.837         -0.00435719  
0.838         -0.00436282  
0.839         -0.00436836  
0.84          -0.00437356  
0.841         -0.00437933  
0.842         -0.00438459  
0.843         -0.00439009  
0.844         -0.00439551  
0.845         -0.00440079  
0.846         -0.00440604  
0.847         -0.00441116  
0.848         -0.00441664  
0.849         -0.00442176  
0.85          -0.00442686  
0.851         -0.00443202  
0.852         -0.00443702  
0.853         -0.00444216  
0.854         -0.00444724  
0.855         -0.00445217  
0.856         -0.00445715  
0.857         -0.00446217  
0.858         -0.00446707  
0.859         -0.004472    
0.86          -0.00447633  
0.861         -0.00448109  
0.862         -0.0044857   
0.863         -0.0044908   
0.864         -0.00449548  
0.865         -0.0044998   
0.866         -0.00450482  
0.867         -0.00450943  
0.868         -0.00451397  
0.869         -0.00451848  
0.87          -0.00452279  
0.871         -0.00452749  
0.872         -0.00453185  
0.873         -0.00453628  
0.874         -0.00454065  
0.875         -0.00454495  
0.876         -0.00454919  
0.877         -0.00455342  
0.878         -0.00455768  
0.879         -0.00456222  
0.88          -0.00456613  
0.881         -0.00457     
0.882         -0.00457397  
0.883         -0.00457791  
0.884         -0.00458209  
0.885         -0.00458608  
0.886         -0.00458998  
0.887         -0.00459396  
0.888         -0.00459789  
0.889         -0.00460177  
0.89          -0.00460542  
0.891         -0.00460939  
0.892         -0.00461312  
0.893         -0.00461684  
0.894         -0.00462052  
0.895         -0.00462415  
0.896         -0.00462816  
0.897         -0.00463123  
0.898         -0.00463484  
0.899         -0.00463797  
0.9           -0.00464146  
0.901         -0.00464539  
0.902         -0.00464884  
0.903         -0.00465206  
0.904         -0.00465526  
0.905         -0.00465894  
0.906         -0.00466231  
0.907         -0.00466548  
0.908         -0.00466873  
0.909         -0.00467169  
0.91          -0.00467516  
0.911         -0.00467829  
0.912         -0.00468144  
0.913         -0.00468452  
0.914         -0.00468755  
0.915         -0.00469073  
0.916         -0.00469312  
0.917         -0.00469636  
0.918         -0.00469932  
0.919         -0.00470223  
0.92          -0.00470488  
0.921         -0.00470781  
0.922         -0.0047106   
0.923         -0.0047133   
0.924         -0.00471598  
0.925         -0.00471858  
0.926         -0.00472134  
0.927         -0.00472399  
0.928         -0.00472673  
0.929         -0.00472938  
0.93          -0.00473163  
0.931         -0.00473416  
0.932         -0.00473661  
0.933         -0.00473909  
0.934         -0.00474164  
0.935         -0.00474384  
0.936         -0.00474613  
0.937         -0.00474851  
0.938         -0.00475053  
0.939         -0.0047527   
0.94          -0.00475496  
0.941         -0.00475755  
0.942         -0.0047598   
0.943         -0.00476169  
0.944         -0.00476406  
0.945         -0.00476636  
0.946         -0.00476794  
0.947         -0.00476999  
0.948         -0.00477196  
0.949         -0.0047737   
0.95          -0.00477592  
0.951         -0.00477778  
0.952         -0.00477968  
0.953         -0.00478146  
0.954         -0.00478311  
0.955         -0.00478507  
0.956         -0.00478658  
0.957         -0.00478851  
0.958         -0.00479024  
0.959         -0.00479193  
0.96          -0.00479366  
0.961         -0.004795    
0.962         -0.00479669  
0.963         -0.00479833  
0.964         -0.00479994  
0.965         -0.00480111  
0.966         -0.00480266  
0.967         -0.00480415  
0.968         -0.00480562  
0.969         -0.00480716  
0.97          -0.00480828  
0.971         -0.00480942  
0.972         -0.00481082  
0.973         -0.00481214  
0.974         -0.00481333  
0.975         -0.00481427  
0.976         -0.00481565  
0.977         -0.00481681  
0.978         -0.00481797  
0.979         -0.00481908  
0.98          -0.00481973  
0.981         -0.00482063  
0.982         -0.00482225  
0.983         -0.00482327  
0.984         -0.0048239   
0.985         -0.00482531  
0.986         -0.00482586  
0.987         -0.00482677  
0.988         -0.00482769  
0.989         -0.00482853  
0.99          -0.00482917  
0.991         -0.00483011  
0.992         -0.00483081  
0.993         -0.00483156  
0.994         -0.00483222  
0.995         -0.00483284  
0.996         -0.00483352  
0.997         -0.00483407  
0.998         -0.00483517  
0.999         -0.00483529  
1             -0.00483561  
1.001         -0.00483643  
1.002         -0.00483684  
1.003         -0.00483738  
1.004         -0.00483785  
1.005         -0.00483822  
1.006         -0.00483886  
1.007         -0.00483879  
1.008         -0.00483907  
1.009         -0.0048395   
1.01          -0.00483988  
1.011         -0.00483999  
1.012         -0.00484029  
1.013         -0.00484054  
1.014         -0.0048407   
1.015         -0.00484091  
1.016         -0.00484103  
1.017         -0.00484119  
1.018         -0.0048411   
1.019         -0.00484134  
1.02          -0.0048415   
1.021         -0.00484203  
1.022         -0.00484099  
1.023         -0.00484083  
1.024         -0.00484107  
1.025         -0.00484097  
1.026         -0.00484103  
1.027         -0.0048412   
1.028         -0.00484113  
1.029         -0.00484115  
1.03          -0.0048408   
1.031         -0.00484065  
1.032         -0.00484028  
1.033         -0.00483973  
1.034         -0.0048396   
1.035         -0.00483953  
1.036         -0.0048392   
1.037         -0.00483889  
1.038         -0.00483854  
1.039         -0.00483796  
1.04          -0.00483761  
1.041         -0.00483729  
1.042         -0.00483688  
1.043         -0.00483671  
1.044         -0.00483601  
1.045         -0.00483556  
1.046         -0.00483503  
1.047         -0.00483436  
1.048         -0.00483383  
1.049         -0.00483342  
1.05          -0.00483283  
1.051         -0.0048322   
1.052         -0.00483153  
1.053         -0.00483082  
1.054         -0.00483022  
1.055         -0.00482956  
1.056         -0.00482896  
1.057         -0.00482814  
1.058         -0.00482738  
1.059         -0.00482659  
1.06          -0.0048258   
1.061         -0.00482495  
1.062         -0.00482432  
1.063         -0.00482368  
1.064         -0.00482241  
1.065         -0.00482141  
1.066         -0.00482027  
1.067         -0.00481937  
1.068         -0.00481867  
1.069         -0.0048179   