# Probe 0 (0.5 0.5 0.05)
# Time        0            
0.001         (0.125916 2.30918e-08 0)
0.002         (0.229026 4.33412e-08 0)
0.003         (0.313867 6.16509e-08 0)
0.004         (0.384029 7.84364e-08 0)
0.005         (0.442364 9.40772e-08 0)
0.006         (0.49114 1.08909e-07 0)
0.007         (0.532164 1.22702e-07 0)
0.008         (0.566879 1.35379e-07 0)
0.009         (0.59644 1.4684e-07 0)
0.01          (0.621774 1.57248e-07 0)
0.011         (0.643627 1.66526e-07 0)
0.012         (0.662599 1.75035e-07 0)
0.013         (0.679177 1.82675e-07 0)
0.014         (0.693757 1.89474e-07 0)
0.015         (0.706658 1.95582e-07 0)
0.016         (0.718144 2.01172e-07 0)
0.017         (0.728429 2.06338e-07 0)
0.018         (0.737692 2.11018e-07 0)
0.019         (0.746077 2.15528e-07 0)
0.02          (0.753708 2.19551e-07 0)
0.021         (0.760683 2.23233e-07 0)
0.022         (0.767089 2.27071e-07 0)
0.023         (0.772997 2.30511e-07 0)
0.024         (0.778466 2.33797e-07 0)
0.025         (0.783547 2.37024e-07 0)
0.026         (0.788283 2.40183e-07 0)
0.027         (0.792713 2.43377e-07 0)
0.028         (0.796867 2.46569e-07 0)
0.029         (0.800773 2.49729e-07 0)
0.03          (0.804456 2.52975e-07 0)
0.031         (0.807935 2.56156e-07 0)
0.032         (0.81123 2.5943e-07 0)
0.033         (0.814356 2.62724e-07 0)
0.034         (0.817328 2.66095e-07 0)
0.035         (0.820157 2.69334e-07 0)
0.036         (0.822856 2.72583e-07 0)
0.037         (0.825433 2.75879e-07 0)
0.038         (0.827899 2.79355e-07 0)
0.039         (0.83026 2.82947e-07 0)
0.04          (0.832525 2.86445e-07 0)
0.041         (0.834699 2.9003e-07 0)
0.042         (0.836789 2.93492e-07 0)
0.043         (0.8388 2.9714e-07 0)
0.044         (0.840737 3.0074e-07 0)
0.045         (0.842604 3.04296e-07 0)
0.046         (0.844406 3.07973e-07 0)
0.047         (0.846146 3.11667e-07 0)
0.048         (0.847828 3.15606e-07 0)
0.049         (0.849454 3.19395e-07 0)
0.05          (0.851029 3.23207e-07 0)
0.051         (0.852555 3.27087e-07 0)
0.052         (0.854033 3.30991e-07 0)
0.053         (0.855467 3.34875e-07 0)
0.054         (0.856859 3.38758e-07 0)
0.055         (0.858211 3.42752e-07 0)
0.056         (0.859524 3.4667e-07 0)
0.057         (0.860801 3.50689e-07 0)
0.058         (0.862043 3.54625e-07 0)
0.059         (0.863252 3.58652e-07 0)
0.06          (0.864429 3.62737e-07 0)
0.061         (0.865575 3.66778e-07 0)
0.062         (0.866692 3.70974e-07 0)
0.063         (0.867782 3.75064e-07 0)
0.064         (0.868844 3.79294e-07 0)
0.065         (0.869881 3.83512e-07 0)
0.066         (0.870894 3.87735e-07 0)
0.067         (0.871882 3.91988e-07 0)
0.068         (0.872848 3.96207e-07 0)
0.069         (0.873792 4.00452e-07 0)
0.07          (0.874714 4.04817e-07 0)
0.071         (0.875617 4.09165e-07 0)
0.072         (0.8765 4.13499e-07 0)
0.073         (0.877363 4.1797e-07 0)
0.074         (0.878209 4.22328e-07 0)
0.075         (0.879037 4.26764e-07 0)
0.076         (0.879848 4.31262e-07 0)
0.077         (0.880643 4.35737e-07 0)
0.078         (0.881421 4.40205e-07 0)
0.079         (0.882185 4.44666e-07 0)
0.08          (0.882933 4.49167e-07 0)
0.081         (0.883668 4.53704e-07 0)
0.082         (0.884388 4.58236e-07 0)
0.083         (0.885095 4.62811e-07 0)
0.084         (0.885788 4.67446e-07 0)
0.085         (0.886469 4.72037e-07 0)
0.086         (0.887138 4.76702e-07 0)
0.087         (0.887795 4.81355e-07 0)
0.088         (0.88844 4.86038e-07 0)
0.089         (0.889074 4.90777e-07 0)
0.09          (0.889697 4.95509e-07 0)
0.091         (0.890309 5.00267e-07 0)
0.092         (0.890911 5.05031e-07 0)
0.093         (0.891503 5.09821e-07 0)
0.094         (0.892086 5.14626e-07 0)
0.095         (0.892659 5.1938e-07 0)
0.096         (0.893222 5.24234e-07 0)
0.097         (0.893777 5.29076e-07 0)
0.098         (0.894323 5.33924e-07 0)
0.099         (0.89486 5.38763e-07 0)
0.1           (0.895389 5.43603e-07 0)
0.101         (0.89591 5.4847e-07 0)
0.102         (0.896423 5.53366e-07 0)
0.103         (0.896929 5.58284e-07 0)
0.104         (0.897426 5.63219e-07 0)
0.105         (0.897917 5.68188e-07 0)
0.106         (0.8984 5.73181e-07 0)
0.107         (0.898877 5.78214e-07 0)
0.108         (0.899347 5.83242e-07 0)
0.109         (0.89981 5.88279e-07 0)
0.11          (0.900266 5.9333e-07 0)
0.111         (0.900716 5.98402e-07 0)
0.112         (0.90116 6.03578e-07 0)
0.113         (0.901598 6.08741e-07 0)
0.114         (0.90203 6.13852e-07 0)
0.115         (0.902456 6.18968e-07 0)
0.116         (0.902877 6.2409e-07 0)
0.117         (0.903292 6.2927e-07 0)
0.118         (0.903702 6.34444e-07 0)
0.119         (0.904106 6.39733e-07 0)
0.12          (0.904505 6.44972e-07 0)
0.121         (0.904899 6.50195e-07 0)
0.122         (0.905288 6.55456e-07 0)
0.123         (0.905672 6.60729e-07 0)
0.124         (0.906052 6.66022e-07 0)
0.125         (0.906427 6.71389e-07 0)
0.126         (0.906797 6.76676e-07 0)
0.127         (0.907163 6.82071e-07 0)
0.128         (0.907524 6.87433e-07 0)
0.129         (0.907881 6.9285e-07 0)
0.13          (0.908234 6.98306e-07 0)
0.131         (0.908583 7.03708e-07 0)
0.132         (0.908927 7.0915e-07 0)
0.133         (0.909268 7.14581e-07 0)
0.134         (0.909605 7.20033e-07 0)
0.135         (0.909937 7.2552e-07 0)
0.136         (0.910267 7.31026e-07 0)
0.137         (0.910592 7.3657e-07 0)
0.138         (0.910914 7.42149e-07 0)
0.139         (0.911232 7.47717e-07 0)
0.14          (0.911547 7.53276e-07 0)
0.141         (0.911858 7.58976e-07 0)
0.142         (0.912166 7.64614e-07 0)
0.143         (0.912471 7.70229e-07 0)
0.144         (0.912772 7.75866e-07 0)
0.145         (0.913071 7.81539e-07 0)
0.146         (0.913366 7.8723e-07 0)
0.147         (0.913658 7.93005e-07 0)
0.148         (0.913947 7.988e-07 0)
0.149         (0.914233 8.04569e-07 0)
0.15          (0.914516 8.10333e-07 0)
0.151         (0.914796 8.16093e-07 0)
0.152         (0.915074 8.21876e-07 0)
0.153         (0.915348 8.27699e-07 0)
0.154         (0.91562 8.3354e-07 0)
0.155         (0.915889 8.39391e-07 0)
0.156         (0.916156 8.4525e-07 0)
0.157         (0.91642 8.51216e-07 0)
0.158         (0.916681 8.5715e-07 0)
0.159         (0.91694 8.63102e-07 0)
0.16          (0.917197 8.69032e-07 0)
0.161         (0.917451 8.75019e-07 0)
0.162         (0.917702 8.81015e-07 0)
0.163         (0.917951 8.87021e-07 0)
0.164         (0.918198 8.9307e-07 0)
0.165         (0.918443 8.99125e-07 0)
0.166         (0.918685 9.052e-07 0)
0.167         (0.918925 9.11325e-07 0)
0.168         (0.919163 9.17433e-07 0)
0.169         (0.919399 9.23599e-07 0)
0.17          (0.919632 9.29769e-07 0)
0.171         (0.919864 9.35925e-07 0)
0.172         (0.920093 9.42122e-07 0)
0.173         (0.92032 9.48335e-07 0)
0.174         (0.920546 9.54566e-07 0)
0.175         (0.920769 9.60838e-07 0)
0.176         (0.920991 9.67128e-07 0)
0.177         (0.92121 9.73398e-07 0)
0.178         (0.921428 9.79737e-07 0)
0.179         (0.921644 9.86086e-07 0)
0.18          (0.921858 9.92431e-07 0)
0.181         (0.92207 9.98827e-07 0)
0.182         (0.92228 1.00523e-06 0)
0.183         (0.922489 1.01172e-06 0)
0.184         (0.922696 1.01818e-06 0)
0.185         (0.922901 1.02465e-06 0)
0.186         (0.923104 1.03114e-06 0)
0.187         (0.923306 1.03768e-06 0)
0.188         (0.923506 1.04418e-06 0)
0.189         (0.923705 1.05078e-06 0)
0.19          (0.923902 1.05741e-06 0)
0.191         (0.924097 1.06402e-06 0)
0.192         (0.924291 1.07061e-06 0)
0.193         (0.924483 1.07723e-06 0)
0.194         (0.924674 1.08393e-06 0)
0.195         (0.924863 1.09067e-06 0)
0.196         (0.925051 1.09742e-06 0)
0.197         (0.925237 1.10415e-06 0)
0.198         (0.925422 1.11093e-06 0)
0.199         (0.925605 1.1177e-06 0)
0.2           (0.925787 1.12446e-06 0)
0.201         (0.925968 1.13129e-06 0)
0.202         (0.926147 1.13807e-06 0)
0.203         (0.926325 1.14495e-06 0)
0.204         (0.926501 1.1518e-06 0)
0.205         (0.926676 1.15873e-06 0)
0.206         (0.92685 1.1657e-06 0)
0.207         (0.927023 1.17266e-06 0)
0.208         (0.927194 1.17965e-06 0)
0.209         (0.927364 1.18663e-06 0)
0.21          (0.927533 1.19367e-06 0)
0.211         (0.927701 1.20073e-06 0)
0.212         (0.927867 1.20781e-06 0)
0.213         (0.928032 1.21489e-06 0)
0.214         (0.928196 1.222e-06 0)
0.215         (0.928359 1.22911e-06 0)
0.216         (0.928521 1.23628e-06 0)
0.217         (0.928681 1.24346e-06 0)
0.218         (0.928841 1.25061e-06 0)
0.219         (0.928999 1.25784e-06 0)
0.22          (0.929156 1.26511e-06 0)
0.221         (0.929312 1.27243e-06 0)
0.222         (0.929467 1.2798e-06 0)
0.223         (0.929621 1.28716e-06 0)
0.224         (0.929774 1.29451e-06 0)
0.225         (0.929926 1.30187e-06 0)
0.226         (0.930077 1.30924e-06 0)
0.227         (0.930226 1.31665e-06 0)
0.228         (0.930375 1.3241e-06 0)
0.229         (0.930523 1.33159e-06 0)
0.23          (0.93067 1.3391e-06 0)
0.231         (0.930815 1.34657e-06 0)
0.232         (0.93096 1.3541e-06 0)
0.233         (0.931104 1.36164e-06 0)
0.234         (0.931247 1.36924e-06 0)
0.235         (0.931389 1.3769e-06 0)
0.236         (0.93153 1.38456e-06 0)
0.237         (0.93167 1.39225e-06 0)
0.238         (0.931809 1.39998e-06 0)
0.239         (0.931948 1.40773e-06 0)
0.24          (0.932085 1.4155e-06 0)
0.241         (0.932222 1.4232e-06 0)
0.242         (0.932357 1.43105e-06 0)
0.243         (0.932492 1.43887e-06 0)
0.244         (0.932626 1.44673e-06 0)
0.245         (0.932759 1.45462e-06 0)
0.246         (0.932892 1.46253e-06 0)
0.247         (0.933023 1.47044e-06 0)
0.248         (0.933154 1.47841e-06 0)
0.249         (0.933284 1.48638e-06 0)
0.25          (0.933413 1.49439e-06 0)
0.251         (0.933541 1.50244e-06 0)
0.252         (0.933668 1.51047e-06 0)
0.253         (0.933795 1.51857e-06 0)
0.254         (0.933921 1.52671e-06 0)
0.255         (0.934046 1.53485e-06 0)
0.256         (0.934171 1.54301e-06 0)
0.257         (0.934294 1.55118e-06 0)
0.258         (0.934417 1.55938e-06 0)
0.259         (0.934539 1.56764e-06 0)
0.26          (0.934661 1.57588e-06 0)
0.261         (0.934781 1.5842e-06 0)
0.262         (0.934901 1.59254e-06 0)
0.263         (0.935021 1.60091e-06 0)
0.264         (0.935139 1.6093e-06 0)
0.265         (0.935257 1.61767e-06 0)
0.266         (0.935374 1.62611e-06 0)
0.267         (0.935491 1.63457e-06 0)
0.268         (0.935607 1.64305e-06 0)
0.269         (0.935722 1.6516e-06 0)
0.27          (0.935837 1.66015e-06 0)
0.271         (0.93595 1.66869e-06 0)
0.272         (0.936064 1.6773e-06 0)
0.273         (0.936176 1.68593e-06 0)
0.274         (0.936288 1.69459e-06 0)
0.275         (0.9364 1.70328e-06 0)
0.276         (0.93651 1.71201e-06 0)
0.277         (0.93662 1.72076e-06 0)
0.278         (0.93673 1.72957e-06 0)
0.279         (0.936839 1.73836e-06 0)
0.28          (0.936947 1.74719e-06 0)
0.281         (0.937055 1.75609e-06 0)
0.282         (0.937162 1.76501e-06 0)
0.283         (0.937268 1.77397e-06 0)
0.284         (0.937374 1.78291e-06 0)
0.285         (0.937479 1.79185e-06 0)
0.286         (0.937584 1.80089e-06 0)
0.287         (0.937688 1.80999e-06 0)
0.288         (0.937792 1.81906e-06 0)
0.289         (0.937895 1.82815e-06 0)
0.29          (0.937997 1.83725e-06 0)
0.291         (0.938099 1.84634e-06 0)
0.292         (0.938201 1.85555e-06 0)
0.293         (0.938302 1.86477e-06 0)
0.294         (0.938402 1.87403e-06 0)
0.295         (0.938502 1.8833e-06 0)
0.296         (0.938601 1.89257e-06 0)
0.297         (0.9387 1.90187e-06 0)
0.298         (0.938798 1.91122e-06 0)
0.299         (0.938896 1.92056e-06 0)
0.3           (0.938993 1.93001e-06 0)
0.301         (0.939089 1.93945e-06 0)
0.302         (0.939186 1.94896e-06 0)
0.303         (0.939281 1.9585e-06 0)
0.304         (0.939377 1.96802e-06 0)
0.305         (0.939471 1.97762e-06 0)
0.306         (0.939566 1.98727e-06 0)
0.307         (0.939659 1.99689e-06 0)
0.308         (0.939753 2.0066e-06 0)
0.309         (0.939845 2.01624e-06 0)
0.31          (0.939938 2.02603e-06 0)
0.311         (0.94003 2.03577e-06 0)
0.312         (0.940121 2.04559e-06 0)
0.313         (0.940212 2.05544e-06 0)
0.314         (0.940302 2.06528e-06 0)
0.315         (0.940392 2.07515e-06 0)
0.316         (0.940482 2.08504e-06 0)
0.317         (0.940571 2.095e-06 0)
0.318         (0.94066 2.10503e-06 0)
0.319         (0.940748 2.11501e-06 0)
0.32          (0.940836 2.12506e-06 0)
0.321         (0.940923 2.13519e-06 0)
0.322         (0.94101 2.14528e-06 0)
0.323         (0.941097 2.15541e-06 0)
0.324         (0.941183 2.16554e-06 0)
0.325         (0.941269 2.17576e-06 0)
0.326         (0.941354 2.18599e-06 0)
0.327         (0.941439 2.19626e-06 0)
0.328         (0.941524 2.20658e-06 0)
0.329         (0.941608 2.2169e-06 0)
0.33          (0.941691 2.22722e-06 0)
0.331         (0.941775 2.23756e-06 0)
0.332         (0.941857 2.24802e-06 0)
0.333         (0.94194 2.25848e-06 0)
0.334         (0.942022 2.26905e-06 0)
0.335         (0.942104 2.27952e-06 0)
0.336         (0.942185 2.29014e-06 0)
0.337         (0.942266 2.30077e-06 0)
0.338         (0.942347 2.31137e-06 0)
0.339         (0.942427 2.32201e-06 0)
0.34          (0.942507 2.3327e-06 0)
0.341         (0.942586 2.34342e-06 0)
0.342         (0.942665 2.35417e-06 0)
0.343         (0.942744 2.36499e-06 0)
0.344         (0.942822 2.37584e-06 0)
0.345         (0.9429 2.38667e-06 0)
0.346         (0.942978 2.39763e-06 0)
0.347         (0.943055 2.40856e-06 0)
0.348         (0.943132 2.41963e-06 0)
0.349         (0.943208 2.4306e-06 0)
0.35          (0.943285 2.44158e-06 0)
0.351         (0.943361 2.45261e-06 0)
0.352         (0.943436 2.46377e-06 0)
0.353         (0.943511 2.47484e-06 0)
0.354         (0.943586 2.48603e-06 0)
0.355         (0.943661 2.49719e-06 0)
0.356         (0.943735 2.50842e-06 0)
0.357         (0.943809 2.5197e-06 0)
0.358         (0.943882 2.53097e-06 0)
0.359         (0.943955 2.5423e-06 0)
0.36          (0.944028 2.5537e-06 0)
0.361         (0.944101 2.56501e-06 0)
0.362         (0.944173 2.5765e-06 0)
0.363         (0.944245 2.58794e-06 0)
0.364         (0.944316 2.59947e-06 0)
0.365         (0.944388 2.611e-06 0)
0.366         (0.944459 2.62263e-06 0)
0.367         (0.944529 2.63428e-06 0)
0.368         (0.9446 2.64593e-06 0)
0.369         (0.94467 2.65761e-06 0)
0.37          (0.944739 2.6693e-06 0)
0.371         (0.944809 2.68101e-06 0)
0.372         (0.944878 2.69273e-06 0)
0.373         (0.944947 2.70458e-06 0)
0.374         (0.945015 2.71646e-06 0)
0.375         (0.945084 2.72835e-06 0)
0.376         (0.945151 2.74031e-06 0)
0.377         (0.945219 2.75223e-06 0)
0.378         (0.945286 2.7642e-06 0)
0.379         (0.945354 2.77622e-06 0)
0.38          (0.94542 2.78827e-06 0)
0.381         (0.945487 2.80035e-06 0)
0.382         (0.945553 2.81247e-06 0)
0.383         (0.945619 2.82462e-06 0)
0.384         (0.945685 2.83683e-06 0)
0.385         (0.94575 2.84905e-06 0)
0.386         (0.945815 2.86131e-06 0)
0.387         (0.94588 2.87358e-06 0)
0.388         (0.945945 2.88591e-06 0)
0.389         (0.946009 2.89831e-06 0)
0.39          (0.946073 2.91072e-06 0)
0.391         (0.946137 2.92319e-06 0)
0.392         (0.9462 2.93566e-06 0)
0.393         (0.946263 2.94813e-06 0)
0.394         (0.946326 2.96072e-06 0)
0.395         (0.946389 2.97325e-06 0)
0.396         (0.946452 2.98593e-06 0)
0.397         (0.946514 2.99855e-06 0)
0.398         (0.946576 3.01123e-06 0)
0.399         (0.946637 3.02394e-06 0)
0.4           (0.946699 3.03682e-06 0)
0.401         (0.94676 3.04967e-06 0)
0.402         (0.946821 3.06247e-06 0)
0.403         (0.946882 3.07542e-06 0)
0.404         (0.946942 3.08829e-06 0)
0.405         (0.947002 3.10128e-06 0)
0.406         (0.947062 3.11425e-06 0)
0.407         (0.947122 3.12726e-06 0)
0.408         (0.947181 3.14028e-06 0)
0.409         (0.947241 3.15334e-06 0)
0.41          (0.9473 3.16648e-06 0)
0.411         (0.947358 3.17959e-06 0)
0.412         (0.947417 3.19274e-06 0)
0.413         (0.947475 3.20604e-06 0)
0.414         (0.947533 3.21936e-06 0)
0.415         (0.947591 3.23263e-06 0)
0.416         (0.947649 3.24593e-06 0)
0.417         (0.947706 3.25926e-06 0)
0.418         (0.947763 3.27264e-06 0)
0.419         (0.94782 3.28617e-06 0)
0.42          (0.947877 3.29974e-06 0)
0.421         (0.947933 3.31319e-06 0)
0.422         (0.947989 3.32686e-06 0)
0.423         (0.948045 3.34044e-06 0)
0.424         (0.948101 3.35403e-06 0)
0.425         (0.948157 3.36765e-06 0)
0.426         (0.948212 3.38134e-06 0)
0.427         (0.948267 3.39518e-06 0)
0.428         (0.948322 3.409e-06 0)
0.429         (0.948377 3.42277e-06 0)
0.43          (0.948431 3.43665e-06 0)
0.431         (0.948486 3.45054e-06 0)
0.432         (0.94854 3.46449e-06 0)
0.433         (0.948594 3.47844e-06 0)
0.434         (0.948647 3.49244e-06 0)
0.435         (0.948701 3.50644e-06 0)
0.436         (0.948754 3.52042e-06 0)
0.437         (0.948807 3.53458e-06 0)
0.438         (0.94886 3.54874e-06 0)
0.439         (0.948913 3.56289e-06 0)
0.44          (0.948965 3.57708e-06 0)
0.441         (0.949017 3.5914e-06 0)
0.442         (0.949069 3.60571e-06 0)
0.443         (0.949121 3.62007e-06 0)
0.444         (0.949173 3.63448e-06 0)
0.445         (0.949224 3.64897e-06 0)
0.446         (0.949276 3.66341e-06 0)
0.447         (0.949327 3.67787e-06 0)
0.448         (0.949377 3.69238e-06 0)
0.449         (0.949428 3.70691e-06 0)
0.45          (0.949479 3.72144e-06 0)
0.451         (0.949529 3.73608e-06 0)
0.452         (0.949579 3.7507e-06 0)
0.453         (0.949629 3.76537e-06 0)
0.454         (0.949679 3.78015e-06 0)
0.455         (0.949728 3.79495e-06 0)
0.456         (0.949778 3.80981e-06 0)
0.457         (0.949827 3.82468e-06 0)
0.458         (0.949876 3.83957e-06 0)
0.459         (0.949925 3.85452e-06 0)
0.46          (0.949973 3.86943e-06 0)
0.461         (0.950022 3.88442e-06 0)
0.462         (0.95007 3.89945e-06 0)
0.463         (0.950118 3.91454e-06 0)
0.464         (0.950166 3.92963e-06 0)
0.465         (0.950214 3.9448e-06 0)
0.466         (0.950261 3.95999e-06 0)
0.467         (0.950309 3.97521e-06 0)
0.468         (0.950356 3.99046e-06 0)
0.469         (0.950403 4.00576e-06 0)
0.47          (0.95045 4.02106e-06 0)
0.471         (0.950496 4.03643e-06 0)
0.472         (0.950543 4.05185e-06 0)
0.473         (0.950589 4.06725e-06 0)
0.474         (0.950635 4.08272e-06 0)
0.475         (0.950681 4.09825e-06 0)
0.476         (0.950727 4.11382e-06 0)
0.477         (0.950773 4.12941e-06 0)
0.478         (0.950818 4.14503e-06 0)
0.479         (0.950864 4.16068e-06 0)
0.48          (0.950909 4.1764e-06 0)
0.481         (0.950954 4.19211e-06 0)
0.482         (0.950999 4.2079e-06 0)
0.483         (0.951043 4.22375e-06 0)
0.484         (0.951088 4.23962e-06 0)
0.485         (0.951132 4.25545e-06 0)
0.486         (0.951176 4.27137e-06 0)
0.487         (0.95122 4.28739e-06 0)
0.488         (0.951264 4.30331e-06 0)
0.489         (0.951308 4.31939e-06 0)
0.49          (0.951352 4.33541e-06 0)
0.491         (0.951395 4.35142e-06 0)
0.492         (0.951438 4.36759e-06 0)
0.493         (0.951481 4.38373e-06 0)
0.494         (0.951524 4.39994e-06 0)
0.495         (0.951567 4.41612e-06 0)
0.496         (0.95161 4.43245e-06 0)
0.497         (0.951652 4.44876e-06 0)
0.498         (0.951695 4.46525e-06 0)
0.499         (0.951737 4.48168e-06 0)
0.5           (0.951779 4.49817e-06 0)
0.501         (0.951821 4.51457e-06 0)
0.502         (0.951862 4.53114e-06 0)
0.503         (0.951904 4.54765e-06 0)
0.504         (0.951945 4.56429e-06 0)
0.505         (0.951987 4.58085e-06 0)
0.506         (0.952028 4.59752e-06 0)
0.507         (0.952069 4.6142e-06 0)
0.508         (0.95211 4.63092e-06 0)
0.509         (0.95215 4.64773e-06 0)
0.51          (0.952191 4.6646e-06 0)
0.511         (0.952231 4.6814e-06 0)
0.512         (0.952272 4.69827e-06 0)
0.513         (0.952312 4.71522e-06 0)
0.514         (0.952352 4.73217e-06 0)
0.515         (0.952392 4.74916e-06 0)
0.516         (0.952431 4.76625e-06 0)
0.517         (0.952471 4.78326e-06 0)
0.518         (0.95251 4.80035e-06 0)
0.519         (0.95255 4.81746e-06 0)
0.52          (0.952589 4.83465e-06 0)
0.521         (0.952628 4.85187e-06 0)
0.522         (0.952667 4.86913e-06 0)
0.523         (0.952706 4.88637e-06 0)
0.524         (0.952744 4.90372e-06 0)
0.525         (0.952783 4.92107e-06 0)
0.526         (0.952821 4.93845e-06 0)
0.527         (0.952859 4.95585e-06 0)
0.528         (0.952897 4.97331e-06 0)
0.529         (0.952935 4.99078e-06 0)
0.53          (0.952973 5.00828e-06 0)
0.531         (0.953011 5.02585e-06 0)
0.532         (0.953048 5.04345e-06 0)
0.533         (0.953086 5.06105e-06 0)
0.534         (0.953123 5.07874e-06 0)
0.535         (0.95316 5.09645e-06 0)
0.536         (0.953197 5.11421e-06 0)
0.537         (0.953234 5.13195e-06 0)
0.538         (0.953271 5.14977e-06 0)
0.539         (0.953308 5.16761e-06 0)
0.54          (0.953344 5.18553e-06 0)
0.541         (0.953381 5.20348e-06 0)
0.542         (0.953417 5.22139e-06 0)
0.543         (0.953453 5.23939e-06 0)
0.544         (0.953489 5.25737e-06 0)
0.545         (0.953525 5.27544e-06 0)
0.546         (0.953561 5.29354e-06 0)
0.547         (0.953596 5.31169e-06 0)
0.548         (0.953632 5.32987e-06 0)
0.549         (0.953667 5.34806e-06 0)
0.55          (0.953703 5.3663e-06 0)
0.551         (0.953738 5.38457e-06 0)
0.552         (0.953773 5.40289e-06 0)
0.553         (0.953808 5.42126e-06 0)
0.554         (0.953843 5.43964e-06 0)
0.555         (0.953877 5.45799e-06 0)
0.556         (0.953912 5.47641e-06 0)
0.557         (0.953946 5.49488e-06 0)
0.558         (0.953981 5.5134e-06 0)
0.559         (0.954015 5.53197e-06 0)
0.56          (0.954049 5.5506e-06 0)
0.561         (0.954083 5.56923e-06 0)
0.562         (0.954117 5.58789e-06 0)
0.563         (0.954151 5.60661e-06 0)
0.564         (0.954184 5.62533e-06 0)
0.565         (0.954218 5.6441e-06 0)
0.566         (0.954251 5.66289e-06 0)
0.567         (0.954285 5.68171e-06 0)
0.568         (0.954318 5.70057e-06 0)
0.569         (0.954351 5.71948e-06 0)
0.57          (0.954384 5.73846e-06 0)
0.571         (0.954417 5.7574e-06 0)
0.572         (0.954449 5.77642e-06 0)
0.573         (0.954482 5.79546e-06 0)
0.574         (0.954514 5.81453e-06 0)
0.575         (0.954547 5.83363e-06 0)
0.576         (0.954579 5.85274e-06 0)
0.577         (0.954611 5.87193e-06 0)
0.578         (0.954643 5.89115e-06 0)
0.579         (0.954675 5.91038e-06 0)
0.58          (0.954707 5.92966e-06 0)
0.581         (0.954739 5.94895e-06 0)
0.582         (0.954771 5.9683e-06 0)
0.583         (0.954802 5.9877e-06 0)
0.584         (0.954834 6.00712e-06 0)
0.585         (0.954865 6.02653e-06 0)
0.586         (0.954896 6.04601e-06 0)
0.587         (0.954927 6.06554e-06 0)
0.588         (0.954958 6.08507e-06 0)
0.589         (0.954989 6.10465e-06 0)
0.59          (0.95502 6.12426e-06 0)
0.591         (0.955051 6.14394e-06 0)
0.592         (0.955081 6.16363e-06 0)
0.593         (0.955112 6.18333e-06 0)
0.594         (0.955142 6.20304e-06 0)
0.595         (0.955172 6.22284e-06 0)
0.596         (0.955203 6.24265e-06 0)
0.597         (0.955233 6.26254e-06 0)
0.598         (0.955263 6.28243e-06 0)
0.599         (0.955293 6.3023e-06 0)
0.6           (0.955322 6.32228e-06 0)
0.601         (0.955352 6.34227e-06 0)
0.602         (0.955382 6.36226e-06 0)
0.603         (0.955411 6.38236e-06 0)
0.604         (0.95544 6.40237e-06 0)
0.605         (0.95547 6.42244e-06 0)
0.606         (0.955499 6.44264e-06 0)
0.607         (0.955528 6.46287e-06 0)
0.608         (0.955557 6.48308e-06 0)
0.609         (0.955586 6.5033e-06 0)
0.61          (0.955615 6.5236e-06 0)
0.611         (0.955643 6.54393e-06 0)
0.612         (0.955672 6.56427e-06 0)
0.613         (0.9557 6.58465e-06 0)
0.614         (0.955729 6.60505e-06 0)
0.615         (0.955757 6.6255e-06 0)
0.616         (0.955785 6.64595e-06 0)
0.617         (0.955813 6.66643e-06 0)
0.618         (0.955841 6.68703e-06 0)
0.619         (0.955869 6.70758e-06 0)
0.62          (0.955897 6.72815e-06 0)
0.621         (0.955925 6.7488e-06 0)
0.622         (0.955953 6.76942e-06 0)
0.623         (0.95598 6.7901e-06 0)
0.624         (0.956008 6.81081e-06 0)
0.625         (0.956035 6.83154e-06 0)
0.626         (0.956062 6.85233e-06 0)
0.627         (0.956089 6.87315e-06 0)
0.628         (0.956117 6.89403e-06 0)
0.629         (0.956144 6.91491e-06 0)
0.63          (0.95617 6.93586e-06 0)
0.631         (0.956197 6.9568e-06 0)
0.632         (0.956224 6.97779e-06 0)
0.633         (0.956251 6.99875e-06 0)
0.634         (0.956277 7.01979e-06 0)
0.635         (0.956304 7.04087e-06 0)
0.636         (0.95633 7.06198e-06 0)
0.637         (0.956356 7.08314e-06 0)
0.638         (0.956382 7.10428e-06 0)
0.639         (0.956409 7.12551e-06 0)
0.64          (0.956435 7.14673e-06 0)
0.641         (0.956461 7.16799e-06 0)
0.642         (0.956486 7.18926e-06 0)
0.643         (0.956512 7.2106e-06 0)
0.644         (0.956538 7.2319e-06 0)
0.645         (0.956563 7.25331e-06 0)
0.646         (0.956589 7.27471e-06 0)
0.647         (0.956614 7.29616e-06 0)
0.648         (0.95664 7.31768e-06 0)
0.649         (0.956665 7.33916e-06 0)
0.65          (0.95669 7.36072e-06 0)
0.651         (0.956715 7.38228e-06 0)
0.652         (0.95674 7.40391e-06 0)
0.653         (0.956765 7.42556e-06 0)
0.654         (0.95679 7.44717e-06 0)
0.655         (0.956815 7.46882e-06 0)
0.656         (0.956839 7.4905e-06 0)
0.657         (0.956864 7.51224e-06 0)
0.658         (0.956888 7.53405e-06 0)
0.659         (0.956913 7.55587e-06 0)
0.66          (0.956937 7.57768e-06 0)
0.661         (0.956961 7.59953e-06 0)
0.662         (0.956985 7.62144e-06 0)
0.663         (0.957009 7.64335e-06 0)
0.664         (0.957033 7.66529e-06 0)
0.665         (0.957057 7.68727e-06 0)
0.666         (0.957081 7.70928e-06 0)
0.667         (0.957105 7.73129e-06 0)
0.668         (0.957129 7.75331e-06 0)
0.669         (0.957152 7.77542e-06 0)
0.67          (0.957176 7.79755e-06 0)
0.671         (0.957199 7.81972e-06 0)
0.672         (0.957222 7.84192e-06 0)
0.673         (0.957246 7.86413e-06 0)
0.674         (0.957269 7.88636e-06 0)
0.675         (0.957292 7.90862e-06 0)
0.676         (0.957315 7.93095e-06 0)
0.677         (0.957338 7.95329e-06 0)
0.678         (0.957361 7.97562e-06 0)
0.679         (0.957384 7.99802e-06 0)
0.68          (0.957406 8.02043e-06 0)
0.681         (0.957429 8.04287e-06 0)
0.682         (0.957452 8.06534e-06 0)
0.683         (0.957474 8.08783e-06 0)
0.684         (0.957496 8.1104e-06 0)
0.685         (0.957519 8.133e-06 0)
0.686         (0.957541 8.15555e-06 0)
0.687         (0.957563 8.17816e-06 0)
0.688         (0.957585 8.20083e-06 0)
0.689         (0.957607 8.22347e-06 0)
0.69          (0.957629 8.24619e-06 0)
0.691         (0.957651 8.2689e-06 0)
0.692         (0.957673 8.29168e-06 0)
0.693         (0.957695 8.31446e-06 0)
0.694         (0.957716 8.33724e-06 0)
0.695         (0.957738 8.36009e-06 0)
0.696         (0.95776 8.38294e-06 0)
0.697         (0.957781 8.40585e-06 0)
0.698         (0.957802 8.42872e-06 0)
0.699         (0.957824 8.45166e-06 0)
0.7           (0.957845 8.47467e-06 0)
0.701         (0.957866 8.49765e-06 0)
0.702         (0.957887 8.52067e-06 0)
0.703         (0.957908 8.5437e-06 0)
0.704         (0.957929 8.56677e-06 0)
0.705         (0.95795 8.58987e-06 0)
0.706         (0.957971 8.613e-06 0)
0.707         (0.957991 8.63617e-06 0)
0.708         (0.958012 8.65936e-06 0)
0.709         (0.958033 8.68256e-06 0)
0.71          (0.958053 8.70584e-06 0)
0.711         (0.958074 8.72912e-06 0)
0.712         (0.958094 8.75236e-06 0)
0.713         (0.958114 8.7757e-06 0)
0.714         (0.958134 8.79903e-06 0)
0.715         (0.958155 8.82238e-06 0)
0.716         (0.958175 8.84578e-06 0)
0.717         (0.958195 8.86922e-06 0)
0.718         (0.958215 8.89265e-06 0)
0.719         (0.958234 8.91612e-06 0)
0.72          (0.958254 8.93962e-06 0)
0.721         (0.958274 8.96315e-06 0)
0.722         (0.958294 8.98669e-06 0)
0.723         (0.958313 9.01028e-06 0)
0.724         (0.958333 9.03389e-06 0)
0.725         (0.958352 9.0575e-06 0)
0.726         (0.958372 9.08118e-06 0)
0.727         (0.958391 9.10485e-06 0)
0.728         (0.95841 9.12855e-06 0)
0.729         (0.958429 9.15234e-06 0)
0.73          (0.958448 9.17614e-06 0)
0.731         (0.958468 9.19987e-06 0)
0.732         (0.958487 9.22366e-06 0)
0.733         (0.958505 9.24747e-06 0)
0.734         (0.958524 9.27136e-06 0)
0.735         (0.958543 9.29522e-06 0)
0.736         (0.958562 9.31909e-06 0)
0.737         (0.958581 9.34306e-06 0)
0.738         (0.958599 9.36704e-06 0)
0.739         (0.958618 9.39104e-06 0)
0.74          (0.958636 9.41502e-06 0)
0.741         (0.958654 9.43897e-06 0)
0.742         (0.958673 9.46304e-06 0)
0.743         (0.958691 9.48707e-06 0)
0.744         (0.958709 9.51119e-06 0)
0.745         (0.958727 9.53533e-06 0)
0.746         (0.958746 9.55946e-06 0)
0.747         (0.958764 9.58363e-06 0)
0.748         (0.958781 9.60785e-06 0)
0.749         (0.958799 9.63205e-06 0)
0.75          (0.958817 9.65631e-06 0)
0.751         (0.958835 9.6806e-06 0)
0.752         (0.958853 9.70483e-06 0)
0.753         (0.95887 9.72917e-06 0)
0.754         (0.958888 9.75353e-06 0)
0.755         (0.958905 9.77788e-06 0)
0.756         (0.958923 9.80226e-06 0)
0.757         (0.95894 9.82669e-06 0)
0.758         (0.958957 9.85116e-06 0)
0.759         (0.958975 9.87561e-06 0)
0.76          (0.958992 9.90009e-06 0)
0.761         (0.959009 9.92458e-06 0)
0.762         (0.959026 9.94911e-06 0)
0.763         (0.959043 9.97367e-06 0)
0.764         (0.95906 9.99822e-06 0)
0.765         (0.959077 1.00228e-05 0)
0.766         (0.959094 1.00474e-05 0)
0.767         (0.959111 1.00721e-05 0)
0.768         (0.959127 1.00967e-05 0)
0.769         (0.959144 1.01214e-05 0)
0.77          (0.959161 1.01461e-05 0)
0.771         (0.959177 1.01708e-05 0)
0.772         (0.959194 1.01956e-05 0)