/*--------------------------------*- C++ -*----------------------------------*\
| =========                 |                                                 |
| \\      /  F ield         | OpenFOAM: The Open Source CFD Toolbox           |
|  \\    /   O peration     | Version:  2412                                  |
|   \\  /    A nd           | Website:  www.openfoam.com                      |
|    \\/     M anipulation  |                                                 |
\*---------------------------------------------------------------------------*/
FoamFile
{
    version     2.0;
    format      ascii;
    arch        "LSB;label=32;scalar=64";
    class       volScalarField;
    location    "1.99";
    object      p;
}
// * * * * * * * * * * * * * * * * * * * * * * * * * * * * * * * * * * * * * //

dimensions      [0 2 -2 0 0 0 0];

internalField   nonuniform List<scalar> 
257400
(
0.473923
0.425863
0.342314
0.24717
0.158823
0.0842679
0.0253693
-0.0202172
-0.0576665
-0.0864631
-0.108336
-0.128069
-0.143781
-0.155009
-0.166817
-0.175237
-0.182297
-0.188191
-0.193127
-0.197917
-0.201726
-0.204264
-0.207595
-0.209254
-0.211488
-0.212937
-0.21428
-0.215119
-0.215955
-0.217425
-0.217161
-0.218271
-0.218786
-0.218445
-0.218433
-0.218409
-0.218243
-0.21839
-0.21754
-0.218047
-0.21772
-0.216716
-0.216991
-0.216098
-0.215096
-0.214785
-0.214373
-0.213397
-0.212978
-0.212339
-0.211225
-0.210723
-0.210036
-0.209201
-0.207824
-0.206773
-0.206329
-0.206195
-0.20522
-0.203295
-0.202839
-0.202315
-0.200673
-0.199734
-0.199469
-0.198377
-0.196554
-0.195147
-0.194293
-0.193818
-0.19267
-0.191322
-0.190451
-0.189698
-0.188166
-0.186808
-0.185942
-0.185509
-0.184658
-0.183221
0.456761
0.424645
0.370653
0.304926
0.234421
0.164574
0.0995473
0.0441716
-0.00210238
-0.0400251
-0.0702848
-0.0949678
-0.115443
-0.131441
-0.145293
-0.156455
-0.165722
-0.173371
-0.179703
-0.185243
-0.189953
-0.193658
-0.19723
-0.199847
-0.202377
-0.204358
-0.206094
-0.207493
-0.208647
-0.209935
-0.210533
-0.21143
-0.212036
-0.212289
-0.212529
-0.21267
-0.212664
-0.212776
-0.212504
-0.212564
-0.212401
-0.211941
-0.211797
-0.211293
-0.21071
-0.210262
-0.209788
-0.209131
-0.208589
-0.207993
-0.207223
-0.206591
-0.20587
-0.205098
-0.204175
-0.203333
-0.202635
-0.201991
-0.201179
-0.200056
-0.19924
-0.198455
-0.197386
-0.196427
-0.195624
-0.194621
-0.193388
-0.192241
-0.191246
-0.190366
-0.189348
-0.188244
-0.187201
-0.18619
-0.185051
-0.183915
-0.182886
-0.181921
-0.181012
-0.179872
0.431011
0.410658
0.373996
0.324529
0.266421
0.204569
0.143816
0.088338
0.0396334
-0.00196205
-0.0361836
-0.0644587
-0.0881627
-0.107382
-0.123501
-0.136975
-0.148211
-0.157581
-0.165407
-0.172072
-0.177836
-0.182588
-0.186772
-0.190242
-0.193277
-0.19584
-0.198051
-0.199923
-0.20144
-0.202896
-0.204003
-0.204983
-0.205834
-0.20647
-0.206922
-0.207254
-0.207447
-0.207647
-0.207655
-0.207659
-0.207642
-0.207444
-0.20725
-0.20697
-0.206582
-0.206149
-0.205723
-0.205226
-0.204704
-0.204171
-0.203554
-0.202925
-0.202262
-0.201584
-0.200842
-0.200065
-0.199303
-0.19858
-0.197862
-0.196998
-0.196123
-0.1953
-0.194408
-0.193475
-0.19258
-0.191664
-0.190647
-0.1896
-0.188586
-0.187641
-0.186686
-0.185677
-0.184661
-0.183681
-0.182656
-0.181604
-0.180595
-0.179656
-0.178703
-0.177624
0.403345
0.390046
0.364865
0.329039
0.284647
0.234661
0.181903
0.129773
0.0810938
0.0372201
-0.000659385
-0.0326442
-0.0597398
-0.082236
-0.101077
-0.116926
-0.130215
-0.141368
-0.150748
-0.158708
-0.165555
-0.171317
-0.1763
-0.180538
-0.18419
-0.187325
-0.190023
-0.192341
-0.194283
-0.19603
-0.197482
-0.198725
-0.199811
-0.200692
-0.201379
-0.201929
-0.202333
-0.202668
-0.202864
-0.202989
-0.203074
-0.203031
-0.202933
-0.20277
-0.202511
-0.202188
-0.201844
-0.201443
-0.200997
-0.200528
-0.200001
-0.19944
-0.198849
-0.198233
-0.197567
-0.196862
-0.196152
-0.195453
-0.194753
-0.193974
-0.193157
-0.192355
-0.19152
-0.190646
-0.189774
-0.188892
-0.187954
-0.18698
-0.186012
-0.185077
-0.184143
-0.183181
-0.182205
-0.181239
-0.180254
-0.179252
-0.178265
-0.177299
-0.176325
-0.175293
0.376956
0.368145
0.350975
0.325587
0.292419
0.252724
0.208384
0.161947
0.116184
0.0728675
0.0336698
-0.000623744
-0.0303831
-0.0557168
-0.0771544
-0.0953676
-0.110781
-0.123809
-0.134837
-0.144199
-0.15223
-0.159068
-0.164958
-0.170012
-0.17437
-0.17813
-0.181378
-0.184191
-0.186592
-0.1887
-0.190508
-0.192066
-0.193414
-0.194555
-0.195501
-0.196285
-0.196906
-0.197418
-0.197801
-0.198083
-0.198291
-0.198395
-0.198423
-0.198376
-0.198249
-0.19805
-0.197802
-0.197498
-0.197144
-0.196752
-0.196312
-0.195832
-0.195313
-0.194762
-0.194172
-0.193548
-0.192903
-0.192243
-0.191569
-0.190855
-0.190107
-0.189345
-0.188558
-0.187743
-0.186911
-0.186062
-0.185182
-0.184277
-0.183363
-0.182455
-0.181545
-0.180621
-0.179683
-0.178741
-0.17779
-0.176828
-0.175866
-0.174904
-0.173939
-0.172944
0.352778
0.34687
0.335077
0.317014
0.292338
0.261346
0.225102
0.185332
0.144194
0.10342
0.0648302
0.0297356
-0.00161687
-0.0290171
-0.0526234
-0.07297
-0.0903844
-0.105241
-0.117918
-0.128737
-0.13804
-0.146012
-0.152877
-0.158802
-0.163925
-0.168363
-0.172214
-0.175563
-0.17845
-0.180974
-0.183168
-0.185067
-0.186717
-0.188144
-0.189359
-0.190386
-0.191237
-0.191952
-0.192528
-0.192983
-0.193342
-0.193598
-0.193765
-0.193848
-0.193852
-0.193776
-0.193637
-0.193438
-0.193184
-0.192882
-0.19253
-0.192135
-0.191695
-0.191218
-0.190706
-0.190158
-0.189578
-0.188971
-0.188346
-0.187693
-0.187006
-0.186294
-0.185559
-0.184798
-0.184013
-0.183209
-0.182383
-0.181537
-0.180674
-0.179803
-0.178926
-0.17804
-0.17714
-0.176232
-0.175315
-0.17439
-0.173458
-0.172519
-0.171575
-0.17061
0.330966
0.326961
0.318785
0.305858
0.28754
0.263619
0.234479
0.201138
0.165233
0.128179
0.0916564
0.0571668
0.0253787
-0.00319475
-0.028362
-0.050436
-0.0695937
-0.0861295
-0.100378
-0.112632
-0.123218
-0.132342
-0.140224
-0.147057
-0.152982
-0.158134
-0.162623
-0.16654
-0.169941
-0.172919
-0.175525
-0.177793
-0.179775
-0.181506
-0.183
-0.184285
-0.185379
-0.186312
-0.187092
-0.187733
-0.18826
-0.188678
-0.188992
-0.189215
-0.189353
-0.189404
-0.189383
-0.189296
-0.189146
-0.188941
-0.188684
-0.188377
-0.188021
-0.187625
-0.187191
-0.186718
-0.186207
-0.185663
-0.185097
-0.184503
-0.183876
-0.18322
-0.182539
-0.181833
-0.181099
-0.180345
-0.179571
-0.178778
-0.177964
-0.177136
-0.176299
-0.175452
-0.174591
-0.173719
-0.172838
-0.171948
-0.171048
-0.170138
-0.16922
-0.168286
0.31139
0.308659
0.302958
0.293664
0.280043
0.261629
0.238401
0.210817
0.180071
0.14724
0.113699
0.0809004
0.0497231
0.0208887
-0.00512539
-0.0283968
-0.0489267
-0.0668919
-0.0825496
-0.0961412
-0.107963
-0.118222
-0.127124
-0.134879
-0.141628
-0.147519
-0.152669
-0.157179
-0.161116
-0.164573
-0.167614
-0.170274
-0.172609
-0.174662
-0.176452
-0.178009
-0.179355
-0.180519
-0.181514
-0.182352
-0.18306
-0.183648
-0.184119
-0.184489
-0.184767
-0.18495
-0.185053
-0.185083
-0.185043
-0.184942
-0.184782
-0.184568
-0.184301
-0.183989
-0.183635
-0.183239
-0.182801
-0.182326
-0.181822
-0.181291
-0.180725
-0.180127
-0.179503
-0.178852
-0.178173
-0.177471
-0.176748
-0.176006
-0.175241
-0.17446
-0.173665
-0.172858
-0.172037
-0.171203
-0.170359
-0.169504
-0.168638
-0.167759
-0.166871
-0.165968
0.293818
0.291957
0.287976
0.281269
0.271102
0.256911
0.238453
0.215828
0.189805
0.161193
0.13105
0.100642
0.0708861
0.0425972
0.0164442
-0.00744459
-0.0288999
-0.0479642
-0.0647953
-0.0795636
-0.0925177
-0.103848
-0.113737
-0.1224
-0.129972
-0.136609
-0.142433
-0.147551
-0.152039
-0.155991
-0.159483
-0.16255
-0.165254
-0.167645
-0.169745
-0.171586
-0.173195
-0.174599
-0.175819
-0.176863
-0.177762
-0.178527
-0.179163
-0.179688
-0.180111
-0.180431
-0.180663
-0.180815
-0.180889
-0.180895
-0.180838
-0.18072
-0.180545
-0.18032
-0.180049
-0.179733
-0.179371
-0.178967
-0.17853
-0.178064
-0.177561
-0.177023
-0.176458
-0.175864
-0.175239
-0.17459
-0.17392
-0.173229
-0.172514
-0.171779
-0.171028
-0.170264
-0.169484
-0.168689
-0.167882
-0.167064
-0.166232
-0.165387
-0.164531
-0.16366
0.278004
0.276748
0.273981
0.269134
0.261517
0.250546
0.235874
0.21738
0.195523
0.17084
0.144148
0.11648
0.0886833
0.0615658
0.0358928
0.0119451
-0.00996699
-0.0297565
-0.0474738
-0.0632062
-0.0771407
-0.089436
-0.100242
-0.109769
-0.118138
-0.125509
-0.132004
-0.137733
-0.142777
-0.147233
-0.151187
-0.15467
-0.157755
-0.160494
-0.162913
-0.165048
-0.166928
-0.168581
-0.170033
-0.17129
-0.172387
-0.173337
-0.174144
-0.174829
-0.175403
-0.175865
-0.176229
-0.176506
-0.176699
-0.176816
-0.176865
-0.176847
-0.176767
-0.176631
-0.176446
-0.176211
-0.175927
-0.175596
-0.175229
-0.17483
-0.174392
-0.173915
-0.173411
-0.172875
-0.172306
-0.171711
-0.171094
-0.170454
-0.169789
-0.169101
-0.168395
-0.167674
-0.166936
-0.16618
-0.165412
-0.164631
-0.163835
-0.163024
-0.162201
-0.161364
0.26372
0.262891
0.260991
0.257496
0.251773
0.24326
0.231567
0.216453
0.19816
0.177011
0.153592
0.128747
0.103198
0.0776793
0.0529715
0.0294499
0.00752348
-0.0126114
-0.0309033
-0.0473539
-0.0620804
-0.0751998
-0.0868225
-0.0971398
-0.106259
-0.114331
-0.121477
-0.127805
-0.133401
-0.138361
-0.142778
-0.146684
-0.150155
-0.153248
-0.155992
-0.158427
-0.160584
-0.162492
-0.164181
-0.165658
-0.166958
-0.168099
-0.169081
-0.169931
-0.170659
-0.171267
-0.171767
-0.172173
-0.172487
-0.172718
-0.172875
-0.172959
-0.172976
-0.172933
-0.172835
-0.172684
-0.172479
-0.172224
-0.171928
-0.171598
-0.171225
-0.170812
-0.170368
-0.169892
-0.16938
-0.16884
-0.168276
-0.167687
-0.167072
-0.166432
-0.165772
-0.165094
-0.164398
-0.163683
-0.162954
-0.162211
-0.161451
-0.160676
-0.159886
-0.159083
0.250766
0.250242
0.248968
0.246466
0.24216
0.235527
0.226174
0.213797
0.198497
0.180441
0.160018
0.137898
0.11469
0.0910135
0.0676113
0.044899
0.0233411
0.00321481
-0.0153422
-0.032252
-0.0475613
-0.0613393
-0.0736521
-0.0846649
-0.0944628
-0.103186
-0.110947
-0.11785
-0.123982
-0.129437
-0.134311
-0.138638
-0.142495
-0.145945
-0.149017
-0.151755
-0.154192
-0.156359
-0.158288
-0.159988
-0.161495
-0.162829
-0.163992
-0.16501
-0.165896
-0.166651
-0.16729
-0.167828
-0.168265
-0.168613
-0.16888
-0.169068
-0.169184
-0.169234
-0.169226
-0.169159
-0.169035
-0.168857
-0.168634
-0.168374
-0.168069
-0.16772
-0.167338
-0.166921
-0.166466
-0.165981
-0.165471
-0.164934
-0.164369
-0.163776
-0.163162
-0.162529
-0.161876
-0.161202
-0.160512
-0.159807
-0.159084
-0.158344
-0.157589
-0.156819
0.238969
0.238666
0.237848
0.236081
0.232843
0.227657
0.220142
0.209972
0.197156
0.181756
0.16401
0.144425
0.123508
0.101772
0.0798812
0.0582529
0.0373688
0.017557
-0.00097927
-0.0180956
-0.0337724
-0.0480309
-0.0608908
-0.072486
-0.0828756
-0.0921834
-0.10051
-0.107951
-0.114592
-0.120523
-0.125841
-0.130579
-0.134818
-0.138621
-0.142021
-0.14506
-0.147778
-0.150205
-0.152376
-0.154301
-0.156017
-0.157547
-0.158891
-0.16008
-0.161126
-0.162031
-0.162811
-0.163481
-0.164044
-0.16451
-0.164889
-0.165183
-0.165399
-0.165544
-0.165625
-0.165645
-0.165603
-0.165502
-0.165354
-0.165165
-0.164927
-0.164643
-0.164323
-0.163967
-0.16357
-0.163141
-0.162684
-0.162199
-0.161684
-0.16114
-0.160572
-0.159983
-0.159372
-0.158739
-0.158089
-0.157422
-0.156737
-0.156032
-0.155311
-0.154575
0.228182
0.228039
0.227557
0.226339
0.223913
0.219844
0.213778
0.205387
0.194621
0.181474
0.166073
0.148793
0.130037
0.110227
0.0899435
0.0695732
0.0495867
0.0303357
0.012067
-0.00502414
-0.020861
-0.0354201
-0.0486766
-0.0607302
-0.0716118
-0.081425
-0.0902545
-0.098187
-0.1053
-0.111679
-0.117421
-0.122556
-0.127166
-0.131314
-0.135035
-0.138374
-0.14137
-0.144055
-0.146468
-0.148618
-0.150543
-0.152269
-0.153796
-0.155156
-0.156363
-0.157419
-0.158341
-0.159145
-0.159834
-0.160419
-0.160911
-0.161311
-0.161628
-0.161869
-0.162042
-0.162148
-0.162188
-0.162166
-0.162092
-0.161975
-0.161806
-0.161587
-0.16133
-0.161034
-0.160695
-0.160322
-0.159919
-0.159486
-0.159021
-0.158524
-0.158003
-0.157459
-0.156891
-0.156299
-0.155688
-0.15506
-0.154411
-0.153743
-0.153056
-0.152354
0.218282
0.218256
0.218021
0.217215
0.215409
0.21221
0.20729
0.200333
0.191257
0.180007
0.166636
0.151413
0.134649
0.116683
0.0980152
0.0789915
0.0600501
0.0415438
0.0237432
0.00687799
-0.00892978
-0.0236179
-0.0371213
-0.0495052
-0.0607722
-0.0710031
-0.0802652
-0.0886318
-0.0961725
-0.102965
-0.109102
-0.114614
-0.119577
-0.124058
-0.128091
-0.131723
-0.134992
-0.137932
-0.140583
-0.142955
-0.145089
-0.14701
-0.148719
-0.150251
-0.151618
-0.152825
-0.15389
-0.154828
-0.155643
-0.156348
-0.156953
-0.15746
-0.157878
-0.158216
-0.15848
-0.158673
-0.158796
-0.158853
-0.158854
-0.158809
-0.158708
-0.158555
-0.158362
-0.158126
-0.157846
-0.157528
-0.157179
-0.156798
-0.156382
-0.155934
-0.155458
-0.154959
-0.154434
-0.153883
-0.153312
-0.152722
-0.15211
-0.151477
-0.150825
-0.150157
0.209163
0.209222
0.209171
0.208675
0.207346
0.204828
0.200819
0.195022
0.187335
0.177679
0.16605
0.152639
0.137682
0.121437
0.104336
0.0866812
0.0688668
0.0512309
0.034051
0.017576
0.0019614
-0.0126997
-0.0263081
-0.0388965
-0.0504405
-0.0609973
-0.0706154
-0.0793531
-0.0872699
-0.0944348
-0.100935
-0.106795
-0.112092
-0.116889
-0.121221
-0.125134
-0.128668
-0.131857
-0.134741
-0.137333
-0.139671
-0.141784
-0.143675
-0.145376
-0.146903
-0.148261
-0.149467
-0.150539
-0.15148
-0.152304
-0.153022
-0.153636
-0.154156
-0.15459
-0.154945
-0.155225
-0.155431
-0.155567
-0.155644
-0.155671
-0.155638
-0.155551
-0.155421
-0.155246
-0.155023
-0.154761
-0.154466
-0.154137
-0.153771
-0.15337
-0.152941
-0.152486
-0.152003
-0.151494
-0.150962
-0.15041
-0.149835
-0.149238
-0.14862
-0.147985
0.200734
0.200855
0.20094
0.200679
0.199719
0.197736
0.194456
0.1896
0.183059
0.174738
0.164599
0.15277
0.139428
0.124766
0.109147
0.0928348
0.076177
0.0594863
0.0430344
0.0270767
0.0117908
-0.00270778
-0.0162923
-0.0289668
-0.0406822
-0.0514726
-0.0613677
-0.0704097
-0.0786469
-0.0861378
-0.0929619
-0.0991404
-0.104745
-0.109839
-0.114453
-0.118634
-0.122423
-0.125852
-0.128962
-0.131766
-0.134305
-0.136607
-0.138675
-0.140544
-0.142228
-0.143735
-0.145081
-0.146286
-0.147353
-0.148294
-0.149125
-0.149846
-0.150466
-0.150996
-0.151443
-0.151809
-0.152098
-0.152313
-0.152465
-0.152563
-0.152599
-0.152578
-0.15251
-0.152395
-0.152231
-0.152025
-0.151783
-0.151505
-0.151189
-0.150836
-0.150452
-0.150041
-0.149601
-0.149132
-0.14864
-0.148126
-0.147587
-0.147025
-0.146442
-0.14584
0.19292
0.193086
0.19327
0.193188
0.192514
0.190954
0.188258
0.184169
0.178575
0.171374
0.162505
0.152051
0.140142
0.126916
0.112676
0.0976477
0.0821366
0.0664244
0.0507681
0.0354198
0.0205688
0.00634558
-0.00710285
-0.0197559
-0.0315438
-0.0424789
-0.0525724
-0.0618507
-0.0703501
-0.0781179
-0.085225
-0.0916872
-0.0975718
-0.102937
-0.107815
-0.112248
-0.116278
-0.119935
-0.123262
-0.126272
-0.129006
-0.131491
-0.133733
-0.135765
-0.137604
-0.139257
-0.140741
-0.142076
-0.143267
-0.144326
-0.145267
-0.146094
-0.146814
-0.147439
-0.147976
-0.148429
-0.1488
-0.149093
-0.149319
-0.149489
-0.149594
-0.149637
-0.149632
-0.149578
-0.149471
-0.14932
-0.149131
-0.148904
-0.148637
-0.148331
-0.147993
-0.147625
-0.147227
-0.146799
-0.146346
-0.14587
-0.145368
-0.144841
-0.144291
-0.143722
0.185654
0.185852
0.18611
0.186162
0.18571
0.184486
0.182262
0.178801
0.173992
0.167732
0.159945
0.150681
0.140034
0.128101
0.115129
0.101307
0.0869051
0.0721726
0.0573466
0.0426682
0.0283307
0.0144726
0.0012545
-0.0112834
-0.023054
-0.0340505
-0.0442671
-0.0537148
-0.0624177
-0.0704118
-0.0777586
-0.0844677
-0.0906008
-0.0962119
-0.10133
-0.105998
-0.110253
-0.114126
-0.117659
-0.120866
-0.123786
-0.126449
-0.128858
-0.131049
-0.133039
-0.134835
-0.136454
-0.137917
-0.13923
-0.140404
-0.141455
-0.142385
-0.143205
-0.143923
-0.14455
-0.145088
-0.14554
-0.145911
-0.146211
-0.146452
-0.146624
-0.146732
-0.146789
-0.146794
-0.146744
-0.146648
-0.146512
-0.146335
-0.146117
-0.145858
-0.145565
-0.145241
-0.144885
-0.144497
-0.144082
-0.143643
-0.143177
-0.142685
-0.142169
-0.141632
0.178879
0.1791
0.17941
0.179564
0.179286
0.17833
0.176488
0.173543
0.169386
0.163918
0.157054
0.14882
0.139281
0.128502
0.116685
0.103986
0.0906369
0.0768618
0.0628743
0.0489002
0.0351301
0.021705
0.00879306
-0.00355035
-0.0152251
-0.0262075
-0.036477
-0.0460302
-0.0548795
-0.0630492
-0.0705915
-0.0775096
-0.0838584
-0.0896874
-0.0950231
-0.0999042
-0.104367
-0.108442
-0.112169
-0.115562
-0.11866
-0.121492
-0.124063
-0.126407
-0.128543
-0.130477
-0.132228
-0.133816
-0.135247
-0.136534
-0.137692
-0.138725
-0.139642
-0.140452
-0.141167
-0.141789
-0.142321
-0.142769
-0.143143
-0.143453
-0.143692
-0.143864
-0.143983
-0.144046
-0.144053
-0.144011
-0.143927
-0.1438
-0.14363
-0.143418
-0.143169
-0.142888
-0.142573
-0.142225
-0.141849
-0.141446
-0.141016
-0.140558
-0.140075
-0.13957
0.172547
0.172783
0.173131
0.17336
0.173217
0.172475
0.170945
0.168425
0.164814
0.160015
0.153939
0.146595
0.138027
0.128273
0.117501
0.105836
0.0934765
0.0806198
0.0674595
0.0542026
0.0410326
0.0280885
0.0155412
0.00345683
-0.00805504
-0.0189571
-0.0292158
-0.038815
-0.0477561
-0.0560526
-0.0637467
-0.0708353
-0.0773664
-0.0833843
-0.0889119
-0.0939851
-0.0986378
-0.102898
-0.106805
-0.110373
-0.113638
-0.116631
-0.119356
-0.121847
-0.124123
-0.126191
-0.128069
-0.129779
-0.131325
-0.132722
-0.133985
-0.135117
-0.136129
-0.13703
-0.137832
-0.138536
-0.139147
-0.13967
-0.140116
-0.140495
-0.1408
-0.141035
-0.141214
-0.141336
-0.141398
-0.14141
-0.141378
-0.1413
-0.141177
-0.14101
-0.140806
-0.140567
-0.140293
-0.139984
-0.139646
-0.13928
-0.138885
-0.138461
-0.138011
-0.137538
0.166615
0.16686
0.167233
0.167519
0.167481
0.166911
0.165635
0.163468
0.160314
0.156081
0.15068
0.144106
0.136388
0.127545
0.117712
0.106993
0.0955538
0.0835675
0.0712086
0.0586652
0.0461105
0.0336783
0.0215383
0.0097636
-0.00153029
-0.0122951
-0.0224868
-0.0320781
-0.0410604
-0.0494371
-0.0572408
-0.0644622
-0.0711422
-0.0773195
-0.0830134
-0.0882561
-0.093079
-0.0975078
-0.101581
-0.10531
-0.108732
-0.111876
-0.114746
-0.117378
-0.119787
-0.121983
-0.123984
-0.12581
-0.127469
-0.128972
-0.130337
-0.131566
-0.132671
-0.133661
-0.134546
-0.135331
-0.13602
-0.136616
-0.137133
-0.137579
-0.137949
-0.138247
-0.138485
-0.138664
-0.138781
-0.138846
-0.138864
-0.138835
-0.138759
-0.138638
-0.138477
-0.13828
-0.138046
-0.137775
-0.137475
-0.137145
-0.136784
-0.136394
-0.135976
-0.135534
0.161045
0.161295
0.161685
0.162012
0.162055
0.161623
0.160555
0.158683
0.155913
0.152162
0.147339
0.141432
0.134458
0.126421
0.117431
0.107572
0.0969841
0.0858157
0.0742227
0.0623768
0.0504389
0.0385353
0.0268313
0.015404
0.004372
-0.00620834
-0.0162845
-0.0258201
-0.0347977
-0.0432113
-0.0510848
-0.0584027
-0.0651989
-0.0715063
-0.0773406
-0.0827301
-0.087703
-0.0922829
-0.0965058
-0.100383
-0.10395
-0.107235
-0.110242
-0.113006
-0.115542
-0.11786
-0.119978
-0.121917
-0.123683
-0.125289
-0.126752
-0.128075
-0.12927
-0.130346
-0.131314
-0.132178
-0.132941
-0.13361
-0.134196
-0.134709
-0.135142
-0.135501
-0.135797
-0.136032
-0.136204
-0.13632
-0.136388
-0.136407
-0.136377
-0.1363
-0.136181
-0.136025
-0.135831
-0.135599
-0.135335
-0.135041
-0.134714
-0.134357
-0.133971
-0.13356
0.155805
0.156057
0.156456
0.156812
0.156918
0.156596
0.155701
0.154073
0.151629
0.148288
0.143963
0.138636
0.132313
0.124991
0.116756
0.107676
0.097869
0.0874633
0.076596
0.0654226
0.0540923
0.0427224
0.0314714
0.0204181
0.00968145
-0.000676282
-0.0105963
-0.0200347
-0.0289667
-0.037378
-0.0452842
-0.0526643
-0.0595452
-0.0659545
-0.0719036
-0.077417
-0.0825199
-0.0872329
-0.0915902
-0.0956019
-0.0993019
-0.102717
-0.105851
-0.108738
-0.111394
-0.113827
-0.116057
-0.118103
-0.119971
-0.121677
-0.123234
-0.124648
-0.12593
-0.127089
-0.128137
-0.129077
-0.129914
-0.130654
-0.131307
-0.131884
-0.132379
-0.132798
-0.133152
-0.133441
-0.133666
-0.133833
-0.13395
-0.134016
-0.134031
-0.133997
-0.133921
-0.133805
-0.13365
-0.133455
-0.133228
-0.132968
-0.132675
-0.13235
-0.131996
-0.131615
0.150865
0.151117
0.151521
0.151895
0.152049
0.151817
0.151063
0.149641
0.147473
0.144483
0.140588
0.135765
0.130014
0.123324
0.115764
0.107389
0.0982971
0.0885985
0.0784138
0.0678825
0.0571428
0.0463025
0.0355119
0.0248494
0.0144324
0.00432694
-0.00540376
-0.0147099
-0.0235606
-0.0319345
-0.0398396
-0.0472501
-0.0541863
-0.0606702
-0.0667094
-0.0723244
-0.0775371
-0.0823654
-0.086841
-0.0909729
-0.0947931
-0.0983267
-0.101579
-0.10458
-0.107348
-0.10989
-0.112225
-0.114372
-0.116338
-0.118138
-0.119786
-0.121288
-0.122653
-0.123893
-0.125018
-0.126032
-0.126941
-0.127749
-0.128467
-0.129107
-0.129663
-0.130139
-0.130549
-0.130893
-0.131169
-0.131386
-0.13155
-0.131662
-0.131722
-0.131731
-0.131695
-0.131619
-0.131502
-0.131345
-0.131153
-0.130927
-0.130667
-0.130374
-0.130051
-0.129699
0.146201
0.14645
0.146854
0.147241
0.147431
0.14727
0.146633
0.145385
0.143451
0.140763
0.13724
0.132856
0.127609
0.121478
0.114522
0.106784
0.0983444
0.0892988
0.0797524
0.0698297
0.0596581
0.0493365
0.0390061
0.028743
0.0186619
0.00883088
-0.000684132
-0.00982898
-0.018568
-0.0268738
-0.0347476
-0.0421595
-0.0491235
-0.0556564
-0.0617621
-0.0674571
-0.07276
-0.0776859
-0.082264
-0.0865019
-0.0904294
-0.0940706
-0.0974297
-0.100537
-0.103408
-0.106052
-0.108485
-0.110728
-0.112787
-0.114677
-0.116411
-0.117996
-0.119442
-0.120759
-0.121958
-0.123045
-0.124021
-0.124896
-0.125678
-0.126379
-0.126994
-0.127527
-0.127991
-0.128387
-0.128713
-0.128979
-0.12919
-0.129347
-0.12945
-0.1295
-0.129505
-0.129468
-0.129388
-0.129267
-0.12911
-0.128918
-0.12869
-0.128429
-0.128135
-0.127813
0.14179
0.142035
0.142435
0.142829
0.143046
0.142942
0.142402
0.1413
0.139567
0.137138
0.133938
0.129939
0.125135
0.119502
0.113085
0.105921
0.0980763
0.0896317
0.0806795
0.0713306
0.0617013
0.0518823
0.0420056
0.0321442
0.0224085
0.0128674
0.00358815
-0.0053721
-0.013974
-0.0221852
-0.0300013
-0.0373884
-0.0443551
-0.0509133
-0.0570633
-0.0628177
-0.0681919
-0.0731982
-0.0778631
-0.0821928
-0.0862151
-0.0899523
-0.0934083
-0.0966118
-0.0995784
-0.102316
-0.104842
-0.107174
-0.109321
-0.111295
-0.113112
-0.114776
-0.116299
-0.11769
-0.118961
-0.120115
-0.121159
-0.122097
-0.122941
-0.123701
-0.124373
-0.124961
-0.125478
-0.125924
-0.1263
-0.126613
-0.12687
-0.12707
-0.127215
-0.127307
-0.127351
-0.127352
-0.127309
-0.127223
-0.1271
-0.12694
-0.126745
-0.126514
-0.12625
-0.125956
0.137611
0.137851
0.138246
0.138641
0.138877
0.138819
0.138359
0.137381
0.13582
0.133616
0.130698
0.127036
0.122623
0.117431
0.111499
0.104852
0.0975485
0.0896558
0.0812551
0.0724444
0.0633298
0.053994
0.04456
0.0350972
0.0257109
0.0164694
0.00744052
-0.00131698
-0.00976105
-0.0178554
-0.0255906
-0.03293
-0.0398767
-0.0464385
-0.0526121
-0.0584066
-0.0638341
-0.0689042
-0.0736408
-0.0780486
-0.082153
-0.085975
-0.0895176
-0.0928083
-0.0958618
-0.0986858
-0.101297
-0.103713
-0.105941
-0.107996
-0.10989
-0.111629
-0.113225
-0.114687
-0.116026
-0.117246
-0.118353
-0.119353
-0.120257
-0.121074
-0.1218
-0.122442
-0.12301
-0.123506
-0.123929
-0.124288
-0.124589
-0.124833
-0.125019
-0.12515
-0.125233
-0.125271
-0.125263
-0.125212
-0.125122
-0.124995
-0.12483
-0.124629
-0.124394
-0.124129
0.133646
0.13388
0.134268
0.134662
0.134911
0.134889
0.134496
0.133623
0.13221
0.130201
0.127529
0.124164
0.120096
0.115298
0.109799
0.10362
0.0968083
0.0894218
0.0815313
0.0732238
0.0645955
0.0557213
0.0467158
0.0376444
0.0286068
0.0196701
0.0109013
0.00236011
-0.00590965
-0.0138687
-0.0215035
-0.0287749
-0.0356817
-0.0422274
-0.0484057
-0.0542223
-0.0596863
-0.0648044
-0.0695982
-0.0740707
-0.0782449
-0.0821405
-0.0857596
-0.0891282
-0.0922604
-0.0951632
-0.0978526
-0.100346
-0.102651
-0.10478
-0.106747
-0.108557
-0.110222
-0.111751
-0.113155
-0.114439
-0.115607
-0.116666
-0.117626
-0.118498
-0.119278
-0.119971
-0.120589
-0.121132
-0.121602
-0.122005
-0.122349
-0.122634
-0.12286
-0.123031
-0.123151
-0.123225
-0.123252
-0.123234
-0.123177
-0.123081
-0.122947
-0.122775
-0.122569
-0.122331
0.129879
0.130107
0.130486
0.130876
0.131133
0.13114
0.130802
0.130019
0.128733
0.126894
0.124438
0.121335
0.117574
0.113127
0.108017
0.10226
0.0958955
0.088973
0.081554
0.0737155
0.0655449
0.0571096
0.0485161
0.0398258
0.0311327
0.0225019
0.0139989
0.00568363
-0.00239922
-0.0102081
-0.0177262
-0.0249124
-0.0317616
-0.0382736
-0.0444394
-0.0502616
-0.0557463
-0.0608978
-0.0657349
-0.0702592
-0.0744916
-0.0784499
-0.0821356
-0.0855731
-0.0887756
-0.0917497
-0.0945105
-0.0970752
-0.0994504
-0.101649
-0.103684
-0.105561
-0.107291
-0.108884
-0.110349
-0.111693
-0.112919
-0.114035
-0.11505
-0.115975
-0.116806
-0.117548
-0.118214
-0.118803
-0.119318
-0.119764
-0.12015
-0.120475
-0.12074
-0.120948
-0.121105
-0.121214
-0.121275
-0.12129
-0.121265
-0.121199
-0.121095
-0.120952
-0.120773
-0.120562
0.126296
0.126518
0.126887
0.12727
0.127531
0.12756
0.127269
0.126562
0.125387
0.123697
0.121429
0.118558
0.11507
0.110937
0.106176
0.100801
0.094844
0.0883464
0.0813625
0.0739605
0.0662194
0.0581999
0.0500005
0.0416789
0.0333233
0.0249962
0.0167615
0.00867816
0.00079145
-0.00685566
-0.0142436
-0.0213301
-0.0281065
-0.0345693
-0.0407073
-0.04652
-0.052011
-0.0571821
-0.0620496
-0.0666136
-0.0708927
-0.0749033
-0.0786459
-0.0821434
-0.0854081
-0.088446
-0.0912716
-0.0939011
-0.0963411
-0.0986036
-0.100702
-0.102642
-0.104433
-0.106086
-0.107609
-0.10901
-0.110292
-0.111461
-0.112529
-0.113504
-0.114384
-0.115174
-0.115885
-0.11652
-0.117077
-0.117566
-0.117992
-0.118356
-0.118659
-0.118903
-0.119095
-0.119238
-0.119333
-0.11938
-0.119385
-0.119349
-0.119274
-0.119159
-0.119007
-0.118822
0.122883
0.123098
0.123457
0.123832
0.124095
0.124141
0.123887
0.123246
0.122167
0.120606
0.118507
0.115841
0.112596
0.108744
0.104298
0.0992689
0.093682
0.0875738
0.0809912
0.0739946
0.0666557
0.0590289
0.0512051
0.0432381
0.0352109
0.0271831
0.0192161
0.0113679
0.00368364
-0.00379293
-0.0110401
-0.0180148
-0.0247053
-0.0311056
-0.0372021
-0.0429919
-0.048476
-0.0536538
-0.0585397
-0.0631319
-0.0674471
-0.0715
-0.0752902
-0.0788391
-0.0821581
-0.0852525
-0.0881361
-0.0908244
-0.0933235
-0.095645
-0.0978023
-0.0997999
-0.101648
-0.103357
-0.104936
-0.10639
-0.107724
-0.108945
-0.110062
-0.111086
-0.112013
-0.112848
-0.113604
-0.114282
-0.114881
-0.115409
-0.115875
-0.116276
-0.116616
-0.116896
-0.117122
-0.117298
-0.117424
-0.117502
-0.117538
-0.117531
-0.117483
-0.117395
-0.11727
-0.11711
0.119629
0.119837
0.120185
0.12055
0.120812
0.120871
0.120649
0.120064
0.119068
0.117622
0.11567
0.113187
0.11016
0.10656
0.102399
0.0976826
0.0924335
0.0866821
0.0804695
0.0738492
0.0668863
0.0596294
0.0521624
0.0445353
0.0368258
0.0290907
0.0213887
0.0137765
0.0062984
-0.00100139
-0.00809954
-0.0149526
-0.0215465
-0.0278726
-0.0339157
-0.0396705
-0.0451357
-0.0503089
-0.0552018
-0.0598117
-0.0641528
-0.0682385
-0.0720675
-0.0756595
-0.0790251
-0.0821691
-0.0851041
-0.0878451
-0.0903977
-0.0927732
-0.0949844
-0.0970357
-0.0989374
-0.100699
-0.102329
-0.103834
-0.105218
-0.106487
-0.107651
-0.108721
-0.109693
-0.110572
-0.11137
-0.112089
-0.112728
-0.113295
-0.113798
-0.114236
-0.114611
-0.114925
-0.115184
-0.115393
-0.11555
-0.115658
-0.115723
-0.115744
-0.115724
-0.115662
-0.115563
-0.115428
0.116522
0.116723
0.11706
0.117415
0.117674
0.117742
0.117546
0.117009
0.116087
0.114741
0.112921
0.110601
0.107768
0.104396
0.100491
0.0960594
0.0911184
0.0856942
0.0798228
0.0735517
0.0669398
0.0600307
0.0529017
0.0455992
0.0381958
0.0307454
0.0233041
0.0159265
0.00865618
0.00153727
-0.00540579
-0.0121295
-0.0186178
-0.02486
-0.0308394
-0.0365485
-0.0419843
-0.0471422
-0.052032
-0.0566496
-0.0610073
-0.0651169
-0.0689761
-0.0726035
-0.0760084
-0.0791949
-0.082175
-0.0849628
-0.0875635
-0.089988
-0.0922484
-0.0943492
-0.0963001
-0.09811
-0.0997886
-0.101341
-0.102771
-0.104087
-0.105296
-0.10641
-0.107424
-0.108345
-0.109184
-0.109941
-0.110619
-0.111224
-0.111762
-0.112236
-0.112644
-0.112991
-0.113283
-0.113522
-0.11371
-0.113847
-0.11394
-0.113989
-0.113995
-0.113959
-0.113885
-0.113774
0.113553
0.113747
0.114073
0.114417
0.114671
0.114746
0.114571
0.114076
0.113218
0.111961
0.110257
0.108083
0.105426
0.102258
0.098586
0.0944131
0.0897535
0.0846295
0.0790729
0.0731256
0.0668412
0.0602588
0.0534494
0.046456
0.0393464
0.0321717
0.0249851
0.0178394
0.0107767
0.00384089
-0.00294285
-0.00953137
-0.0159068
-0.0220569
-0.0279638
-0.0336181
-0.0390149
-0.0441481
-0.0490255
-0.0536417
-0.0580072
-0.0621324
-0.0660141
-0.0696693
-0.0731064
-0.0763289
-0.079348
-0.0821769
-0.0848205
-0.087289
-0.0895941
-0.09174
-0.0937363
-0.0955914
-0.0973148
-0.0989116
-0.100386
-0.101744
-0.102996
-0.104151
-0.105206
-0.106166
-0.107044
-0.107839
-0.108553
-0.109194
-0.109767
-0.110274
-0.110716
-0.111095
-0.111417
-0.111687
-0.111903
-0.112069
-0.112189
-0.112265
-0.112296
-0.112286
-0.112235
-0.112147
0.110713
0.110901
0.111214
0.111548
0.111796
0.111874
0.111718
0.111258
0.110456
0.109278
0.107679
0.105635
0.103136
0.100153
0.0966922
0.092755
0.0883527
0.0835046
0.0782384
0.0725915
0.0666125
0.0603365
0.0538289
0.0471293
0.040301
0.0333921
0.0264535
0.0195354
0.0126788
0.00592671
-0.000695133
-0.00714413
-0.0134011
-0.0194526
-0.0252794
-0.0308709
-0.0362205
-0.0413206
-0.0461772
-0.0507838
-0.0551491
-0.059282
-0.0631787
-0.0668547
-0.0703174
-0.0735698
-0.076622
-0.0794865
-0.0821677
-0.0846754
-0.0870208
-0.0892078
-0.0912455
-0.0931423
-0.0949073
-0.0965453
-0.0980606
-0.0994595
-0.100751
-0.101945
-0.103038
-0.104036
-0.104951
-0.105782
-0.106531
-0.107206
-0.107813
-0.108352
-0.108825
-0.109235
-0.109587
-0.109886
-0.11013
-0.110323
-0.11047
-0.110571
-0.110628
-0.110641
-0.110614
-0.110549
0.107994
0.108175
0.108477
0.108799
0.109041
0.109121
0.108979
0.10855
0.107797
0.106689
0.105183
0.103257
0.1009
0.0980856
0.0948165
0.0910943
0.0869278
0.0823333
0.0773353
0.0719671
0.066273
0.0602842
0.0540611
0.0476403
0.0410805
0.0344275
0.0277291
0.0210335
0.0143801
0.00781118
0.00135246
-0.00495414
-0.0110885
-0.0170359
-0.0227766
-0.0282985
-0.0335937
-0.0386532
-0.0434815
-0.048071
-0.0524287
-0.0565623
-0.0604672
-0.0641573
-0.0676394
-0.0709156
-0.0739952
-0.0768901
-0.0796041
-0.0821465
-0.0845278
-0.0867518
-0.0888273
-0.0907622
-0.0925654
-0.0942417