# Probe 0 (0.5 0.5 0.05)
# Time        0            
30.001        -0.0250267   
30.002        -0.0250282   
30.003        -0.0250279   
30.004        -0.025028    
30.005        -0.0250283   
30.006        -0.0250286   
30.007        -0.0250288   
30.008        -0.0250291   
30.009        -0.0250293   
30.01         -0.0250296   
30.011        -0.0250298   
30.012        -0.0250301   
30.013        -0.0250303   
30.014        -0.0250306   
30.015        -0.0250308   
30.016        -0.0250311   
30.017        -0.0250314   
30.018        -0.0250316   
30.019        -0.0250319   
30.02         -0.0250321   
30.021        -0.0250324   
30.022        -0.0250326   
30.023        -0.0250329   
30.024        -0.0250331   
30.025        -0.0250334   
30.026        -0.0250336   
30.027        -0.0250339   
30.028        -0.0250341   
30.029        -0.0250344   
30.03         -0.0250346   
30.031        -0.0250349   
30.032        -0.0250351   
30.033        -0.0250354   
30.034        -0.0250356   
30.035        -0.0250359   
30.036        -0.0250361   
30.037        -0.0250364   
30.038        -0.0250366   
30.039        -0.0250369   
30.04         -0.0250371   
30.041        -0.0250374   
30.042        -0.0250376   
30.043        -0.0250379   
30.044        -0.0250381   
30.045        -0.0250384   
30.046        -0.0250386   
30.047        -0.0250389   
30.048        -0.0250391   
30.049        -0.0250394   
30.05         -0.0250396   
30.051        -0.0250398   
30.052        -0.0250401   
30.053        -0.0250403   
30.054        -0.0250406   
30.055        -0.0250408   
30.056        -0.025041    
30.057        -0.0250413   
30.058        -0.0250415   
30.059        -0.0250418   
30.06         -0.025042    
30.061        -0.0250422   
30.062        -0.0250425   
30.063        -0.0250427   
30.064        -0.025043    
30.065        -0.0250432   
30.066        -0.0250434   
30.067        -0.0250437   
30.068        -0.0250439   
30.069        -0.0250441   
30.07         -0.0250444   
30.071        -0.0250446   
30.072        -0.0250448   
30.073        -0.0250451   
30.074        -0.0250453   
30.075        -0.0250455   
30.076        -0.0250458   
30.077        -0.025046    
30.078        -0.0250462   
30.079        -0.0250465   
30.08         -0.0250467   
30.081        -0.0250469   
30.082        -0.0250472   
30.083        -0.0250474   
30.084        -0.0250476   
30.085        -0.0250479   
30.086        -0.0250481   
30.087        -0.0250483   
30.088        -0.0250486   
30.089        -0.0250488   
30.09         -0.025049    
30.091        -0.0250493   
30.092        -0.0250495   
30.093        -0.0250497   
30.094        -0.0250499   
30.095        -0.0250502   
30.096        -0.0250504   
30.097        -0.0250506   
30.098        -0.0250508   
30.099        -0.0250511   
30.1          -0.0250513   
30.101        -0.0250515   
30.102        -0.0250518   
30.103        -0.025052    
30.104        -0.0250522   
30.105        -0.0250524   
30.106        -0.0250526   
30.107        -0.0250528   
30.108        -0.0250531   
30.109        -0.0250534   
30.11         -0.0250536   
30.111        -0.0250538   
30.112        -0.025054    
30.113        -0.0250543   
30.114        -0.0250545   
30.115        -0.0250547   
30.116        -0.0250549   
30.117        -0.0250551   
30.118        -0.0250554   
30.119        -0.0250556   
30.12         -0.0250558   
30.121        -0.025056    
30.122        -0.0250562   
30.123        -0.0250565   
30.124        -0.0250567   
30.125        -0.0250569   
30.126        -0.0250571   
30.127        -0.0250573   
30.128        -0.0250576   
30.129        -0.0250578   
30.13         -0.025058    
30.131        -0.0250582   
30.132        -0.0250584   
30.133        -0.0250587   
30.134        -0.0250589   
30.135        -0.0250591   
30.136        -0.0250593   
30.137        -0.0250595   
30.138        -0.0250597   
30.139        -0.02506     
30.14         -0.0250602   
30.141        -0.0250604   
30.142        -0.0250606   
30.143        -0.0250608   
30.144        -0.025061    
30.145        -0.0250612   
30.146        -0.0250615   
30.147        -0.0250617   
30.148        -0.0250619   
30.149        -0.0250621   
30.15         -0.0250623   
30.151        -0.0250626   
30.152        -0.0250627   
30.153        -0.0250629   
30.154        -0.0250631   
30.155        -0.0250633   
30.156        -0.0250635   
30.157        -0.0250638   
30.158        -0.025064    
30.159        -0.0250642   
30.16         -0.0250644   
30.161        -0.0250646   
30.162        -0.0250648   
30.163        -0.025065    
30.164        -0.0250652   
30.165        -0.0250654   
30.166        -0.0250656   
30.167        -0.0250658   
30.168        -0.025066    
30.169        -0.0250662   
30.17         -0.0250664   
30.171        -0.0250667   
30.172        -0.0250669   
30.173        -0.0250671   
30.174        -0.0250673   
30.175        -0.0250675   
30.176        -0.0250677   
30.177        -0.0250679   
30.178        -0.0250681   
30.179        -0.0250683   
30.18         -0.0250685   
30.181        -0.0250687   
30.182        -0.0250689   
30.183        -0.0250691   
30.184        -0.0250693   
30.185        -0.0250695   
30.186        -0.0250697   
30.187        -0.0250699   
30.188        -0.0250701   
30.189        -0.0250703   
30.19         -0.0250705   
30.191        -0.0250707   
30.192        -0.0250709   
30.193        -0.0250711   
30.194        -0.0250713   
30.195        -0.0250715   
30.196        -0.0250717   
30.197        -0.0250719   
30.198        -0.0250721   
30.199        -0.0250723   
30.2          -0.0250725   
30.201        -0.0250727   
30.202        -0.0250729   
30.203        -0.0250731   
30.204        -0.0250733   
30.205        -0.0250735   
30.206        -0.0250737   
30.207        -0.0250739   
30.208        -0.0250741   
30.209        -0.0250743   
30.21         -0.0250745   
30.211        -0.0250747   
30.212        -0.0250749   
30.213        -0.0250751   
30.214        -0.0250752   
30.215        -0.0250754   
30.216        -0.0250756   
30.217        -0.0250758   
30.218        -0.025076    
30.219        -0.0250762   
30.22         -0.0250764   
30.221        -0.0250766   
30.222        -0.0250767   
30.223        -0.0250769   
30.224        -0.0250771   
30.225        -0.0250773   
30.226        -0.0250775   
30.227        -0.0250777   
30.228        -0.0250779   
30.229        -0.0250781   
30.23         -0.0250783   
30.231        -0.0250785   
30.232        -0.0250786   
30.233        -0.0250788   
30.234        -0.025079    
30.235        -0.0250792   
30.236        -0.0250794   
30.237        -0.0250796   
30.238        -0.0250798   
30.239        -0.0250799   
30.24         -0.0250801   
30.241        -0.0250803   
30.242        -0.0250805   
30.243        -0.0250807   
30.244        -0.0250809   
30.245        -0.0250811   
30.246        -0.0250812   
30.247        -0.0250814   
30.248        -0.0250816   
30.249        -0.0250818   
30.25         -0.025082    
30.251        -0.0250822   
30.252        -0.0250823   
30.253        -0.0250825   
30.254        -0.0250827   
30.255        -0.0250829   
30.256        -0.0250831   
30.257        -0.0250832   
30.258        -0.0250834   
30.259        -0.0250836   
30.26         -0.0250838   
30.261        -0.025084    
30.262        -0.0250841   
30.263        -0.0250843   
30.264        -0.0250845   
30.265        -0.0250847   
30.266        -0.0250849   
30.267        -0.025085    
30.268        -0.0250852   
30.269        -0.0250854   
30.27         -0.0250856   
30.271        -0.0250857   
30.272        -0.0250859   
30.273        -0.0250861   
30.274        -0.0250863   
30.275        -0.0250864   
30.276        -0.0250866   
30.277        -0.0250868   
30.278        -0.025087    
30.279        -0.0250871   
30.28         -0.0250873   
30.281        -0.0250875   
30.282        -0.0250877   
30.283        -0.0250878   
30.284        -0.025088    
30.285        -0.0250882   
30.286        -0.0250884   
30.287        -0.0250885   
30.288        -0.0250887   
30.289        -0.0250889   
30.29         -0.025089    
30.291        -0.0250892   
30.292        -0.0250894   
30.293        -0.0250896   
30.294        -0.0250897   
30.295        -0.0250899   
30.296        -0.0250901   
30.297        -0.0250902   
30.298        -0.0250904   
30.299        -0.0250906   
30.3          -0.0250907   
30.301        -0.0250909   
30.302        -0.0250911   
30.303        -0.0250912   
30.304        -0.0250914   
30.305        -0.0250916   
30.306        -0.0250917   
30.307        -0.0250919   
30.308        -0.0250921   
30.309        -0.0250922   
30.31         -0.0250924   
30.311        -0.0250926   
30.312        -0.0250927   
30.313        -0.0250929   
30.314        -0.0250931   
30.315        -0.0250932   
30.316        -0.0250934   
30.317        -0.0250936   
30.318        -0.0250937   
30.319        -0.0250939   
30.32         -0.0250941   
30.321        -0.0250942   
30.322        -0.0250944   
30.323        -0.0250945   
30.324        -0.0250947   
30.325        -0.0250949   
30.326        -0.025095    
30.327        -0.0250952   
30.328        -0.0250953   
30.329        -0.0250955   
30.33         -0.0250957   
30.331        -0.0250958   
30.332        -0.025096    
30.333        -0.0250961   
30.334        -0.0250963   
30.335        -0.0250965   
30.336        -0.0250966   
30.337        -0.0250968   
30.338        -0.0250969   
30.339        -0.0250971   
30.34         -0.0250973   
30.341        -0.0250974   
30.342        -0.0250976   
30.343        -0.0250977   
30.344        -0.0250979   
30.345        -0.025098    
30.346        -0.0250982   
30.347        -0.0250983   
30.348        -0.0250985   
30.349        -0.0250987   
30.35         -0.0250988   
30.351        -0.025099    
30.352        -0.0250991   
30.353        -0.0250993   
30.354        -0.0250994   
30.355        -0.0250996   
30.356        -0.0250997   
30.357        -0.0250999   
30.358        -0.0251      
30.359        -0.0251002   
30.36         -0.0251004   
30.361        -0.0251005   
30.362        -0.0251007   
30.363        -0.0251008   
30.364        -0.025101    
30.365        -0.0251011   
30.366        -0.0251013   
30.367        -0.0251014   
30.368        -0.0251016   
30.369        -0.0251018   
30.37         -0.0251019   
30.371        -0.025102    
30.372        -0.0251022   
30.373        -0.0251023   
30.374        -0.0251025   
30.375        -0.0251026   
30.376        -0.0251028   
30.377        -0.0251029   
30.378        -0.0251031   
30.379        -0.0251032   
30.38         -0.0251033   
30.381        -0.0251035   
30.382        -0.0251036   
30.383        -0.0251038   
30.384        -0.0251039   
30.385        -0.0251041   
30.386        -0.0251042   
30.387        -0.0251044   
30.388        -0.0251045   
30.389        -0.0251047   
30.39         -0.0251048   
30.391        -0.025105    
30.392        -0.0251051   
30.393        -0.0251052   
30.394        -0.0251054   
30.395        -0.0251055   
30.396        -0.0251057   
30.397        -0.0251058   
30.398        -0.025106    
30.399        -0.0251061   
30.4          -0.0251062   
30.401        -0.0251064   
30.402        -0.0251065   
30.403        -0.0251067   
30.404        -0.0251068   
30.405        -0.025107    
30.406        -0.0251071   
30.407        -0.0251072   
30.408        -0.0251074   
30.409        -0.0251075   
30.41         -0.0251077   
30.411        -0.0251078   
30.412        -0.0251079   
30.413        -0.0251081   
30.414        -0.0251082   
30.415        -0.0251083   
30.416        -0.0251085   
30.417        -0.0251086   
30.418        -0.0251087   
30.419        -0.0251089   
30.42         -0.0251091   
30.421        -0.0251092   
30.422        -0.0251093   
30.423        -0.0251095   
30.424        -0.0251096   
30.425        -0.0251097   
30.426        -0.0251099   
30.427        -0.02511     
30.428        -0.0251102   
30.429        -0.0251103   
30.43         -0.0251104   
30.431        -0.0251106   
30.432        -0.0251107   
30.433        -0.0251108   
30.434        -0.0251109   
30.435        -0.0251111   
30.436        -0.0251112   
30.437        -0.0251114   
30.438        -0.0251115   
30.439        -0.0251116   
30.44         -0.0251118   
30.441        -0.0251119   
30.442        -0.025112    
30.443        -0.0251122   
30.444        -0.0251123   
30.445        -0.0251124   
30.446        -0.0251126   
30.447        -0.0251127   
30.448        -0.0251128   
30.449        -0.0251129   
30.45         -0.0251131   
30.451        -0.0251132   
30.452        -0.0251133   
30.453        -0.0251135   
30.454        -0.0251136   
30.455        -0.0251137   
30.456        -0.0251139   
30.457        -0.025114    
30.458        -0.0251141   
30.459        -0.0251142   
30.46         -0.0251144   
30.461        -0.0251145   
30.462        -0.0251146   
30.463        -0.0251148   
30.464        -0.0251149   
30.465        -0.025115    
30.466        -0.0251151   
30.467        -0.0251153   
30.468        -0.0251154   
30.469        -0.0251155   
30.47         -0.0251157   
30.471        -0.0251158   
30.472        -0.0251159   
30.473        -0.025116    
30.474        -0.0251161   
30.475        -0.0251162   
30.476        -0.0251164   
30.477        -0.0251165   
30.478        -0.0251166   
30.479        -0.0251167   
30.48         -0.0251169   
30.481        -0.025117    
30.482        -0.0251171   
30.483        -0.0251172   
30.484        -0.0251174   
30.485        -0.0251175   
30.486        -0.0251176   
30.487        -0.0251177   
30.488        -0.0251178   
30.489        -0.025118    
30.49         -0.0251181   
30.491        -0.0251182   
30.492        -0.0251183   
30.493        -0.0251184   
30.494        -0.0251186   
30.495        -0.0251187   
30.496        -0.0251188   
30.497        -0.0251189   
30.498        -0.0251191   
30.499        -0.0251192   
30.5          -0.0251193   
30.501        -0.0251194   
30.502        -0.0251195   
30.503        -0.0251197   
30.504        -0.0251198   
30.505        -0.0251199   
30.506        -0.02512     
30.507        -0.0251201   
30.508        -0.0251202   
30.509        -0.0251204   
30.51         -0.0251205   
30.511        -0.0251206   
30.512        -0.0251207   
30.513        -0.0251208   
30.514        -0.0251209   
30.515        -0.025121    
30.516        -0.0251212   
30.517        -0.0251213   
30.518        -0.0251214   
30.519        -0.0251215   
30.52         -0.0251216   
30.521        -0.0251217   
30.522        -0.0251219   
30.523        -0.025122    
30.524        -0.0251221   
30.525        -0.0251222   
30.526        -0.0251223   
30.527        -0.0251224   
30.528        -0.0251225   
30.529        -0.0251226   
30.53         -0.0251228   
30.531        -0.0251229   
30.532        -0.025123    
30.533        -0.0251231   
30.534        -0.0251232   
30.535        -0.0251233   
30.536        -0.0251234   
30.537        -0.0251235   
30.538        -0.0251236   
30.539        -0.0251238   
30.54         -0.0251239   
30.541        -0.025124    
30.542        -0.0251241   
30.543        -0.0251242   
30.544        -0.0251243   
30.545        -0.0251244   
30.546        -0.0251245   
30.547        -0.0251246   
30.548        -0.0251247   
30.549        -0.0251249   
30.55         -0.025125    
30.551        -0.0251251   
30.552        -0.0251252   
30.553        -0.0251253   
30.554        -0.0251254   
30.555        -0.0251255   
30.556        -0.0251256   
30.557        -0.0251257   
30.558        -0.0251258   
30.559        -0.0251259   
30.56         -0.025126    
30.561        -0.0251261   
30.562        -0.0251262   
30.563        -0.0251263   
30.564        -0.0251264   
30.565        -0.0251266   
30.566        -0.0251267   
30.567        -0.0251268   
30.568        -0.0251269   
30.569        -0.025127    
30.57         -0.0251271   
30.571        -0.0251272   
30.572        -0.0251273   
30.573        -0.0251274   
30.574        -0.0251275   
30.575        -0.0251276   
30.576        -0.0251277   
30.577        -0.0251278   
30.578        -0.0251279   
30.579        -0.025128    
30.58         -0.0251281   
30.581        -0.0251282   
30.582        -0.0251283   
30.583        -0.0251284   
30.584        -0.0251285   
30.585        -0.0251286   
30.586        -0.0251287   
30.587        -0.0251288   
30.588        -0.0251289   
30.589        -0.025129    
30.59         -0.0251291   
30.591        -0.0251292   
30.592        -0.0251293   
30.593        -0.0251294   
30.594        -0.0251295   
30.595        -0.0251296   
30.596        -0.0251297   
30.597        -0.0251298   
30.598        -0.0251299   
30.599        -0.02513     
30.6          -0.0251301   
30.601        -0.0251302   
30.602        -0.0251303   
30.603        -0.0251304   
30.604        -0.0251305   
30.605        -0.0251306   
30.606        -0.0251307   
30.607        -0.0251308   
30.608        -0.0251309   
30.609        -0.025131    
30.61         -0.0251311   
30.611        -0.0251312   
30.612        -0.0251313   
30.613        -0.0251314   
30.614        -0.0251314   
30.615        -0.0251315   
30.616        -0.0251316   
30.617        -0.0251317   
30.618        -0.0251318   
30.619        -0.0251319   
30.62         -0.025132    
30.621        -0.0251321   
30.622        -0.0251322   
30.623        -0.0251323   
30.624        -0.0251324   
30.625        -0.0251325   
30.626        -0.0251326   
30.627        -0.0251327   
30.628        -0.0251328   
30.629        -0.0251328   
30.63         -0.0251329   
30.631        -0.025133    
30.632        -0.0251331   
30.633        -0.0251332   
30.634        -0.0251333   
30.635        -0.0251334   
30.636        -0.0251335   
30.637        -0.0251335   
30.638        -0.0251336   
30.639        -0.0251337   
30.64         -0.0251338   
30.641        -0.0251339   
30.642        -0.025134    
30.643        -0.025134    
30.644        -0.0251342   
30.645        -0.0251343   
30.646        -0.0251344   
30.647        -0.0251345   
30.648        -0.0251345   
30.649        -0.0251346   
30.65         -0.0251347   
30.651        -0.0251348   
30.652        -0.0251349   
30.653        -0.025135    
30.654        -0.0251351   
30.655        -0.0251352   
30.656        -0.0251352   
30.657        -0.0251353   
30.658        -0.0251354   
30.659        -0.0251355   
30.66         -0.0251356   
30.661        -0.0251357   
30.662        -0.0251358   
30.663        -0.0251358   
30.664        -0.0251359   
30.665        -0.025136    
30.666        -0.0251361   
30.667        -0.0251362   
30.668        -0.0251363   
30.669        -0.0251364   
30.67         -0.0251364   
30.671        -0.0251365   
30.672        -0.0251366   
30.673        -0.0251367   
30.674        -0.0251368   
30.675        -0.0251369   
30.676        -0.025137    
30.677        -0.025137    
30.678        -0.0251371   
30.679        -0.0251372   
30.68         -0.0251373   
30.681        -0.0251374   
30.682        -0.0251374   
30.683        -0.0251375   
30.684        -0.0251376   
30.685        -0.0251377   
30.686        -0.0251378   
30.687        -0.0251379   
30.688        -0.0251379   
30.689        -0.025138    
30.69         -0.0251381   
30.691        -0.0251382   
30.692        -0.0251383   
30.693        -0.0251383   
30.694        -0.0251384   
30.695        -0.0251385   
30.696        -0.0251386   
30.697        -0.0251387   
30.698        -0.0251387   
30.699        -0.0251388   
30.7          -0.0251389   
30.701        -0.025139    
30.702        -0.025139    
30.703        -0.0251391   
30.704        -0.0251392   
30.705        -0.0251393   
30.706        -0.0251394   
30.707        -0.0251395   
30.708        -0.0251395   
30.709        -0.0251396   
30.71         -0.0251397   
30.711        -0.0251398   
30.712        -0.0251398   
30.713        -0.0251399   
30.714        -0.02514     
30.715        -0.0251401   
30.716        -0.0251402   
30.717        -0.0251402   
30.718        -0.0251403   
30.719        -0.0251404   
30.72         -0.0251405   
30.721        -0.0251405   
30.722        -0.0251406   
30.723        -0.0251407   
30.724        -0.0251408   
30.725        -0.0251408   
30.726        -0.0251409   
30.727        -0.025141    
30.728        -0.0251411   
30.729        -0.0251411   
30.73         -0.0251412   
30.731        -0.0251413   
30.732        -0.0251413   
30.733        -0.0251414   
30.734        -0.0251415   
30.735        -0.0251416   
30.736        -0.0251416   
30.737        -0.0251417   
30.738        -0.0251418   
30.739        -0.0251419   
30.74         -0.0251419   
30.741        -0.025142    
30.742        -0.0251421   
30.743        -0.0251422   
30.744        -0.0251423   
30.745        -0.0251424   
30.746        -0.0251424   
30.747        -0.0251424   
30.748        -0.0251425   
30.749        -0.0251426   
30.75         -0.0251426   
30.751        -0.0251427   
30.752        -0.0251428   
30.753        -0.0251428   
30.754        -0.0251429   
30.755        -0.025143    
30.756        -0.0251431   
30.757        -0.0251431   
30.758        -0.0251432   
30.759        -0.0251433   
30.76         -0.0251433   
30.761        -0.0251434   
30.762        -0.0251435   
30.763        -0.0251435   
30.764        -0.0251436   
30.765        -0.0251437   
30.766        -0.0251437   
30.767        -0.0251438   
30.768        -0.0251439   
30.769        -0.025144    
30.77         -0.025144    
30.771        -0.0251441   
30.772        -0.0251442   
30.773        -0.0251442   
30.774        -0.0251443   
30.775        -0.0251444   
30.776        -0.0251444   
30.777        -0.0251445   
30.778        -0.0251446   
30.779        -0.0251446   
30.78         -0.0251447   
30.781        -0.0251448   
30.782        -0.0251448   
30.783        -0.0251449   
30.784        -0.0251449   
30.785        -0.025145    
30.786        -0.0251451   
30.787        -0.0251451   
30.788        -0.0251452   
30.789        -0.0251453   
30.79         -0.0251453   
30.791        -0.0251454   
30.792        -0.0251455   
30.793        -0.0251455   
30.794        -0.0251456   
30.795        -0.0251457   
30.796        -0.0251457   
30.797        -0.0251458   
30.798        -0.0251459   
30.799        -0.0251459   
30.8          -0.025146    
30.801        -0.025146    
30.802        -0.0251461   
30.803        -0.0251462   
30.804        -0.0251462   
30.805        -0.0251463   
30.806        -0.0251464   
30.807        -0.0251464   
30.808        -0.0251465   
30.809        -0.0251465   
30.81         -0.0251466   
30.811        -0.0251467   
30.812        -0.0251467   
30.813        -0.0251468   
30.814        -0.0251468   
30.815        -0.0251469   
30.816        -0.025147    
30.817        -0.025147    
30.818        -0.0251471   
30.819        -0.0251472   
30.82         -0.0251472   
30.821        -0.0251473   
30.822        -0.0251473   
30.823        -0.0251474   
30.824        -0.0251474   
30.825        -0.0251475   
30.826        -0.0251476   
30.827        -0.0251476   
30.828        -0.0251477   
30.829        -0.0251477   
30.83         -0.0251478   
30.831        -0.0251479   
30.832        -0.0251479   
30.833        -0.025148    
30.834        -0.025148    
30.835        -0.0251481   
30.836        -0.0251481   
30.837        -0.0251482   
30.838        -0.0251483   
30.839        -0.0251483   
30.84         -0.0251484   
30.841        -0.0251485   
30.842        -0.0251485   
30.843        -0.0251486   
30.844        -0.0251486   
30.845        -0.0251487   
30.846        -0.0251487   
30.847        -0.0251488   
30.848        -0.0251488   
30.849        -0.0251489   
30.85         -0.025149    
30.851        -0.025149    
30.852        -0.0251491   
30.853        -0.0251491   
30.854        -0.0251492   
30.855        -0.0251492   
30.856        -0.0251493   
30.857        -0.0251493   
30.858        -0.0251494   
30.859        -0.0251495   
30.86         -0.0251495   
30.861        -0.0251496   
30.862        -0.0251496   
30.863        -0.0251497   
30.864        -0.0251497   
30.865        -0.0251498   
30.866        -0.0251498   
30.867        -0.0251499   
30.868        -0.0251499   
30.869        -0.02515     
30.87         -0.0251501   
30.871        -0.0251501   
30.872        -0.0251502   
30.873        -0.0251503   
30.874        -0.0251503   
30.875        -0.0251503   
30.876        -0.0251503   
30.877        -0.0251504   
30.878        -0.0251505   
30.879        -0.0251505   
30.88         -0.0251506   
30.881        -0.0251506   
30.882        -0.0251507   
30.883        -0.0251507   
30.884        -0.0251508   
30.885        -0.0251508   
30.886        -0.0251509   
30.887        -0.0251509   
30.888        -0.025151    
30.889        -0.025151    
30.89         -0.0251511   
30.891        -0.0251511   
30.892        -0.0251512   
30.893        -0.0251512   
30.894        -0.0251513   
30.895        -0.0251513   
30.896        -0.0251514   
30.897        -0.0251514   
30.898        -0.0251515   
30.899        -0.0251515   
30.9          -0.0251516   
30.901        -0.0251516   
30.902        -0.0251517   
30.903        -0.0251517   
30.904        -0.0251518   
30.905        -0.0251518   
30.906        -0.0251519   
30.907        -0.0251519   
30.908        -0.025152    
30.909        -0.025152    
30.91         -0.0251521   
30.911        -0.0251521   
30.912        -0.0251522   
30.913        -0.0251522   
30.914        -0.0251523   
30.915        -0.0251523   
30.916        -0.0251524   
30.917        -0.0251524   
30.918        -0.0251524   
30.919        -0.0251525   
30.92         -0.0251525   
30.921        -0.0251526   
30.922        -0.0251526   
30.923        -0.0251527   
30.924        -0.0251527   
30.925        -0.0251528   
30.926        -0.0251528   
30.927        -0.0251529   
30.928        -0.0251529   
30.929        -0.025153    
30.93         -0.025153    
30.931        -0.0251531   
30.932        -0.0251531   
30.933        -0.0251531   
30.934        -0.0251532   
30.935        -0.0251532   
30.936        -0.0251533   
30.937        -0.0251533   
30.938        -0.0251534   
30.939        -0.0251534   
30.94         -0.0251535   
30.941        -0.0251535   
30.942        -0.0251535   
30.943        -0.0251536   
30.944        -0.0251536   
30.945        -0.0251537   
30.946        -0.0251537   
30.947        -0.0251538   
30.948        -0.0251538   
30.949        -0.0251539   
30.95         -0.0251539   
30.951        -0.025154    
30.952        -0.025154    
30.953        -0.025154    
30.954        -0.0251541   
30.955        -0.0251541   
30.956        -0.0251542   
30.957        -0.0251542   
30.958        -0.0251543   
30.959        -0.0251543   
30.96         -0.0251543   
30.961        -0.0251544   
30.962        -0.0251544   
30.963        -0.0251545   
30.964        -0.0251545   
30.965        -0.0251546   
30.966        -0.0251546   
30.967        -0.0251546   
30.968        -0.0251547   
30.969        -0.0251547   
30.97         -0.0251548   
30.971        -0.0251548   
30.972        -0.0251548   
30.973        -0.0251549   
30.974        -0.0251549   
30.975        -0.025155    
30.976        -0.025155    
30.977        -0.0251551   
30.978        -0.0251551   
30.979        -0.0251551   
30.98         -0.0251552   
30.981        -0.0251552   
30.982        -0.0251553   
30.983        -0.0251553   
30.984        -0.0251553   
30.985        -0.0251554   
30.986        -0.0251554   
30.987        -0.0251555   
30.988        -0.0251555   
30.989        -0.0251555   
30.99         -0.0251556   
30.991        -0.0251556   
30.992        -0.0251557   
30.993        -0.0251557   
30.994        -0.0251558   
30.995        -0.0251558   
30.996        -0.0251559   
30.997        -0.0251559   
30.998        -0.025156    
30.999        -0.0251559   
31            -0.025156    
31.001        -0.025156    
31.002        -0.025156    
31.003        -0.0251561   
31.004        -0.0251561   
31.005        -0.0251561   
31.006        -0.0251562   
31.007        -0.0251562   
31.008        -0.0251563   
31.009        -0.0251563   
31.01         -0.0251563   
31.011        -0.0251564   
31.012        -0.0251564   
31.013        -0.0251564   
31.014        -0.0251565   
31.015        -0.0251565   
31.016        -0.0251566   
31.017        -0.0251566   
31.018        -0.0251566   
31.019        -0.0251567   
31.02         -0.0251567   
31.021        -0.0251568   
31.022        -0.0251568   
31.023        -0.0251569   
31.024        -0.0251569   
31.025        -0.0251569   
31.026        -0.0251569   
31.027        -0.0251569   
31.028        -0.025157    
31.029        -0.025157    
31.03         -0.0251571   
31.031        -0.0251571   
31.032        -0.0251571   
31.033        -0.0251572   
31.034        -0.0251572   
31.035        -0.0251572   
31.036        -0.0251573   
31.037        -0.0251573   
31.038        -0.0251574   
31.039        -0.0251574   
31.04         -0.0251574   
31.041        -0.0251575   
31.042        -0.0251575   
31.043        -0.0251575   
31.044        -0.0251576   
31.045        -0.0251576   
31.046        -0.0251576   
31.047        -0.0251577   
31.048        -0.0251577   
31.049        -0.0251577   
31.05         -0.0251578   
31.051        -0.0251578   
31.052        -0.0251578   
31.053        -0.0251579   
31.054        -0.0251579   
31.055        -0.0251579   
31.056        -0.025158    
31.057        -0.025158    
31.058        -0.025158    
31.059        -0.0251581   
31.06         -0.0251581   
31.061        -0.0251581   
31.062        -0.0251582   
31.063        -0.0251582   
31.064        -0.0251582   
31.065        -0.0251583   
31.066        -0.0251583   
31.067        -0.0251583   
31.068        -0.0251584   
31.069        -0.0251584   