# Probe 0 (0.5 0.5 0.05)
# Time        0            
30.001        (0.971221 1.70516e-05 0)
30.002        (0.971222 1.70527e-05 0)
30.003        (0.971222 1.70531e-05 0)
30.004        (0.971222 1.70531e-05 0)
30.005        (0.971222 1.70527e-05 0)
30.006        (0.971223 1.70522e-05 0)
30.007        (0.971223 1.70517e-05 0)
30.008        (0.971223 1.7051e-05 0)
30.009        (0.971223 1.70504e-05 0)
30.01         (0.971223 1.70497e-05 0)
30.011        (0.971224 1.70491e-05 0)
30.012        (0.971224 1.70485e-05 0)
30.013        (0.971224 1.70479e-05 0)
30.014        (0.971224 1.70474e-05 0)
30.015        (0.971225 1.70468e-05 0)
30.016        (0.971225 1.70463e-05 0)
30.017        (0.971225 1.70458e-05 0)
30.018        (0.971225 1.70454e-05 0)
30.019        (0.971226 1.70449e-05 0)
30.02         (0.971226 1.70445e-05 0)
30.021        (0.971226 1.70441e-05 0)
30.022        (0.971226 1.70438e-05 0)
30.023        (0.971226 1.70434e-05 0)
30.024        (0.971227 1.70431e-05 0)
30.025        (0.971227 1.70427e-05 0)
30.026        (0.971227 1.70424e-05 0)
30.027        (0.971227 1.70421e-05 0)
30.028        (0.971228 1.70418e-05 0)
30.029        (0.971228 1.70416e-05 0)
30.03         (0.971228 1.70413e-05 0)
30.031        (0.971228 1.70411e-05 0)
30.032        (0.971228 1.70408e-05 0)
30.033        (0.971229 1.70406e-05 0)
30.034        (0.971229 1.70404e-05 0)
30.035        (0.971229 1.70402e-05 0)
30.036        (0.971229 1.704e-05 0)
30.037        (0.971229 1.70398e-05 0)
30.038        (0.97123 1.70397e-05 0)
30.039        (0.97123 1.70395e-05 0)
30.04         (0.97123 1.70393e-05 0)
30.041        (0.97123 1.70392e-05 0)
30.042        (0.971231 1.70391e-05 0)
30.043        (0.971231 1.70389e-05 0)
30.044        (0.971231 1.70388e-05 0)
30.045        (0.971231 1.70387e-05 0)
30.046        (0.971231 1.70386e-05 0)
30.047        (0.971232 1.70385e-05 0)
30.048        (0.971232 1.70384e-05 0)
30.049        (0.971232 1.70383e-05 0)
30.05         (0.971232 1.70383e-05 0)
30.051        (0.971233 1.70382e-05 0)
30.052        (0.971233 1.70381e-05 0)
30.053        (0.971233 1.70381e-05 0)
30.054        (0.971233 1.7038e-05 0)
30.055        (0.971233 1.70379e-05 0)
30.056        (0.971234 1.70379e-05 0)
30.057        (0.971234 1.70378e-05 0)
30.058        (0.971234 1.70378e-05 0)
30.059        (0.971234 1.70377e-05 0)
30.06         (0.971234 1.70377e-05 0)
30.061        (0.971235 1.70376e-05 0)
30.062        (0.971235 1.70376e-05 0)
30.063        (0.971235 1.70375e-05 0)
30.064        (0.971235 1.70375e-05 0)
30.065        (0.971236 1.70374e-05 0)
30.066        (0.971236 1.70374e-05 0)
30.067        (0.971236 1.70373e-05 0)
30.068        (0.971236 1.70373e-05 0)
30.069        (0.971236 1.70372e-05 0)
30.07         (0.971237 1.70372e-05 0)
30.071        (0.971237 1.70371e-05 0)
30.072        (0.971237 1.70371e-05 0)
30.073        (0.971237 1.7037e-05 0)
30.074        (0.971237 1.7037e-05 0)
30.075        (0.971238 1.70369e-05 0)
30.076        (0.971238 1.70368e-05 0)
30.077        (0.971238 1.70368e-05 0)
30.078        (0.971238 1.70367e-05 0)
30.079        (0.971239 1.70366e-05 0)
30.08         (0.971239 1.70365e-05 0)
30.081        (0.971239 1.70364e-05 0)
30.082        (0.971239 1.70363e-05 0)
30.083        (0.971239 1.70362e-05 0)
30.084        (0.97124 1.70362e-05 0)
30.085        (0.97124 1.70361e-05 0)
30.086        (0.97124 1.7036e-05 0)
30.087        (0.97124 1.70359e-05 0)
30.088        (0.97124 1.70357e-05 0)
30.089        (0.971241 1.70356e-05 0)
30.09         (0.971241 1.70355e-05 0)
30.091        (0.971241 1.70354e-05 0)
30.092        (0.971241 1.70353e-05 0)
30.093        (0.971242 1.70352e-05 0)
30.094        (0.971242 1.7035e-05 0)
30.095        (0.971242 1.70349e-05 0)
30.096        (0.971242 1.70348e-05 0)
30.097        (0.971242 1.70346e-05 0)
30.098        (0.971243 1.70345e-05 0)
30.099        (0.971243 1.70343e-05 0)
30.1          (0.971243 1.70342e-05 0)
30.101        (0.971243 1.7034e-05 0)
30.102        (0.971243 1.70339e-05 0)
30.103        (0.971244 1.70337e-05 0)
30.104        (0.971244 1.70336e-05 0)
30.105        (0.971244 1.70334e-05 0)
30.106        (0.971244 1.70333e-05 0)
30.107        (0.971244 1.70331e-05 0)
30.108        (0.971245 1.70329e-05 0)
30.109        (0.971245 1.70328e-05 0)
30.11         (0.971245 1.70326e-05 0)
30.111        (0.971245 1.70325e-05 0)
30.112        (0.971246 1.70323e-05 0)
30.113        (0.971246 1.70321e-05 0)
30.114        (0.971246 1.7032e-05 0)
30.115        (0.971246 1.70318e-05 0)
30.116        (0.971246 1.70316e-05 0)
30.117        (0.971247 1.70315e-05 0)
30.118        (0.971247 1.70313e-05 0)
30.119        (0.971247 1.70311e-05 0)
30.12         (0.971247 1.7031e-05 0)
30.121        (0.971247 1.70308e-05 0)
30.122        (0.971248 1.70306e-05 0)
30.123        (0.971248 1.70305e-05 0)
30.124        (0.971248 1.70303e-05 0)
30.125        (0.971248 1.70301e-05 0)
30.126        (0.971248 1.703e-05 0)
30.127        (0.971249 1.70298e-05 0)
30.128        (0.971249 1.70297e-05 0)
30.129        (0.971249 1.70295e-05 0)
30.13         (0.971249 1.70293e-05 0)
30.131        (0.97125 1.70292e-05 0)
30.132        (0.97125 1.7029e-05 0)
30.133        (0.97125 1.70289e-05 0)
30.134        (0.97125 1.70287e-05 0)
30.135        (0.97125 1.70285e-05 0)
30.136        (0.971251 1.70284e-05 0)
30.137        (0.971251 1.70282e-05 0)
30.138        (0.971251 1.70281e-05 0)
30.139        (0.971251 1.70279e-05 0)
30.14         (0.971251 1.70278e-05 0)
30.141        (0.971252 1.70276e-05 0)
30.142        (0.971252 1.70275e-05 0)
30.143        (0.971252 1.70273e-05 0)
30.144        (0.971252 1.70272e-05 0)
30.145        (0.971252 1.70271e-05 0)
30.146        (0.971253 1.70269e-05 0)
30.147        (0.971253 1.70268e-05 0)
30.148        (0.971253 1.70266e-05 0)
30.149        (0.971253 1.70265e-05 0)
30.15         (0.971254 1.70263e-05 0)
30.151        (0.971254 1.70262e-05 0)
30.152        (0.971254 1.70261e-05 0)
30.153        (0.971254 1.70259e-05 0)
30.154        (0.971254 1.70258e-05 0)
30.155        (0.971255 1.70256e-05 0)
30.156        (0.971255 1.70255e-05 0)
30.157        (0.971255 1.70254e-05 0)
30.158        (0.971255 1.70252e-05 0)
30.159        (0.971255 1.70251e-05 0)
30.16         (0.971256 1.7025e-05 0)
30.161        (0.971256 1.70248e-05 0)
30.162        (0.971256 1.70247e-05 0)
30.163        (0.971256 1.70246e-05 0)
30.164        (0.971256 1.70244e-05 0)
30.165        (0.971257 1.70243e-05 0)
30.166        (0.971257 1.70242e-05 0)
30.167        (0.971257 1.7024e-05 0)
30.168        (0.971257 1.70239e-05 0)
30.169        (0.971257 1.70238e-05 0)
30.17         (0.971258 1.70237e-05 0)
30.171        (0.971258 1.70235e-05 0)
30.172        (0.971258 1.70234e-05 0)
30.173        (0.971258 1.70233e-05 0)
30.174        (0.971258 1.70231e-05 0)
30.175        (0.971259 1.7023e-05 0)
30.176        (0.971259 1.70229e-05 0)
30.177        (0.971259 1.70227e-05 0)
30.178        (0.971259 1.70226e-05 0)
30.179        (0.971259 1.70225e-05 0)
30.18         (0.97126 1.70223e-05 0)
30.181        (0.97126 1.70222e-05 0)
30.182        (0.97126 1.70221e-05 0)
30.183        (0.97126 1.70219e-05 0)
30.184        (0.971261 1.70218e-05 0)
30.185        (0.971261 1.70217e-05 0)
30.186        (0.971261 1.70215e-05 0)
30.187        (0.971261 1.70214e-05 0)
30.188        (0.971261 1.70213e-05 0)
30.189        (0.971262 1.70211e-05 0)
30.19         (0.971262 1.7021e-05 0)
30.191        (0.971262 1.70209e-05 0)
30.192        (0.971262 1.70207e-05 0)
30.193        (0.971262 1.70206e-05 0)
30.194        (0.971263 1.70204e-05 0)
30.195        (0.971263 1.70203e-05 0)
30.196        (0.971263 1.70202e-05 0)
30.197        (0.971263 1.702e-05 0)
30.198        (0.971263 1.70199e-05 0)
30.199        (0.971264 1.70198e-05 0)
30.2          (0.971264 1.70196e-05 0)
30.201        (0.971264 1.70195e-05 0)
30.202        (0.971264 1.70193e-05 0)
30.203        (0.971264 1.70192e-05 0)
30.204        (0.971265 1.70191e-05 0)
30.205        (0.971265 1.70189e-05 0)
30.206        (0.971265 1.70188e-05 0)
30.207        (0.971265 1.70186e-05 0)
30.208        (0.971265 1.70185e-05 0)
30.209        (0.971266 1.70184e-05 0)
30.21         (0.971266 1.70182e-05 0)
30.211        (0.971266 1.70181e-05 0)
30.212        (0.971266 1.70179e-05 0)
30.213        (0.971266 1.70178e-05 0)
30.214        (0.971267 1.70177e-05 0)
30.215        (0.971267 1.70175e-05 0)
30.216        (0.971267 1.70174e-05 0)
30.217        (0.971267 1.70172e-05 0)
30.218        (0.971267 1.70171e-05 0)
30.219        (0.971268 1.70169e-05 0)
30.22         (0.971268 1.70168e-05 0)
30.221        (0.971268 1.70167e-05 0)
30.222        (0.971268 1.70165e-05 0)
30.223        (0.971268 1.70164e-05 0)
30.224        (0.971269 1.70162e-05 0)
30.225        (0.971269 1.70161e-05 0)
30.226        (0.971269 1.7016e-05 0)
30.227        (0.971269 1.70158e-05 0)
30.228        (0.971269 1.70157e-05 0)
30.229        (0.97127 1.70155e-05 0)
30.23         (0.97127 1.70154e-05 0)
30.231        (0.97127 1.70153e-05 0)
30.232        (0.97127 1.70151e-05 0)
30.233        (0.97127 1.7015e-05 0)
30.234        (0.971271 1.70148e-05 0)
30.235        (0.971271 1.70147e-05 0)
30.236        (0.971271 1.70145e-05 0)
30.237        (0.971271 1.70144e-05 0)
30.238        (0.971271 1.70143e-05 0)
30.239        (0.971272 1.70141e-05 0)
30.24         (0.971272 1.7014e-05 0)
30.241        (0.971272 1.70138e-05 0)
30.242        (0.971272 1.70137e-05 0)
30.243        (0.971272 1.70135e-05 0)
30.244        (0.971273 1.70134e-05 0)
30.245        (0.971273 1.70133e-05 0)
30.246        (0.971273 1.70131e-05 0)
30.247        (0.971273 1.7013e-05 0)
30.248        (0.971273 1.70128e-05 0)
30.249        (0.971274 1.70127e-05 0)
30.25         (0.971274 1.70126e-05 0)
30.251        (0.971274 1.70124e-05 0)
30.252        (0.971274 1.70123e-05 0)
30.253        (0.971274 1.70122e-05 0)
30.254        (0.971275 1.7012e-05 0)
30.255        (0.971275 1.70119e-05 0)
30.256        (0.971275 1.70117e-05 0)
30.257        (0.971275 1.70116e-05 0)
30.258        (0.971275 1.70115e-05 0)
30.259        (0.971276 1.70113e-05 0)
30.26         (0.971276 1.70112e-05 0)
30.261        (0.971276 1.7011e-05 0)
30.262        (0.971276 1.70109e-05 0)
30.263        (0.971276 1.70108e-05 0)
30.264        (0.971277 1.70106e-05 0)
30.265        (0.971277 1.70105e-05 0)
30.266        (0.971277 1.70103e-05 0)
30.267        (0.971277 1.70102e-05 0)
30.268        (0.971277 1.70101e-05 0)
30.269        (0.971278 1.70099e-05 0)
30.27         (0.971278 1.70098e-05 0)
30.271        (0.971278 1.70097e-05 0)
30.272        (0.971278 1.70095e-05 0)
30.273        (0.971278 1.70094e-05 0)
30.274        (0.971279 1.70092e-05 0)
30.275        (0.971279 1.70091e-05 0)
30.276        (0.971279 1.7009e-05 0)
30.277        (0.971279 1.70088e-05 0)
30.278        (0.971279 1.70087e-05 0)
30.279        (0.97128 1.70086e-05 0)
30.28         (0.97128 1.70084e-05 0)
30.281        (0.97128 1.70083e-05 0)
30.282        (0.97128 1.70081e-05 0)
30.283        (0.97128 1.7008e-05 0)
30.284        (0.971281 1.70079e-05 0)
30.285        (0.971281 1.70077e-05 0)
30.286        (0.971281 1.70076e-05 0)
30.287        (0.971281 1.70074e-05 0)
30.288        (0.971281 1.70073e-05 0)
30.289        (0.971282 1.70072e-05 0)
30.29         (0.971282 1.7007e-05 0)
30.291        (0.971282 1.70069e-05 0)
30.292        (0.971282 1.70067e-05 0)
30.293        (0.971282 1.70066e-05 0)
30.294        (0.971283 1.70065e-05 0)
30.295        (0.971283 1.70063e-05 0)
30.296        (0.971283 1.70062e-05 0)
30.297        (0.971283 1.7006e-05 0)
30.298        (0.971283 1.70059e-05 0)
30.299        (0.971284 1.70058e-05 0)
30.3          (0.971284 1.70056e-05 0)
30.301        (0.971284 1.70055e-05 0)
30.302        (0.971284 1.70053e-05 0)
30.303        (0.971284 1.70052e-05 0)
30.304        (0.971285 1.70051e-05 0)
30.305        (0.971285 1.70049e-05 0)
30.306        (0.971285 1.70048e-05 0)
30.307        (0.971285 1.70046e-05 0)
30.308        (0.971285 1.70045e-05 0)
30.309        (0.971286 1.70044e-05 0)
30.31         (0.971286 1.70042e-05 0)
30.311        (0.971286 1.70041e-05 0)
30.312        (0.971286 1.70039e-05 0)
30.313        (0.971286 1.70038e-05 0)
30.314        (0.971287 1.70036e-05 0)
30.315        (0.971287 1.70035e-05 0)
30.316        (0.971287 1.70034e-05 0)
30.317        (0.971287 1.70032e-05 0)
30.318        (0.971287 1.70031e-05 0)
30.319        (0.971287 1.70029e-05 0)
30.32         (0.971288 1.70028e-05 0)
30.321        (0.971288 1.70026e-05 0)
30.322        (0.971288 1.70025e-05 0)
30.323        (0.971288 1.70024e-05 0)
30.324        (0.971288 1.70022e-05 0)
30.325        (0.971289 1.70021e-05 0)
30.326        (0.971289 1.70019e-05 0)
30.327        (0.971289 1.70018e-05 0)
30.328        (0.971289 1.70016e-05 0)
30.329        (0.971289 1.70015e-05 0)
30.33         (0.97129 1.70014e-05 0)
30.331        (0.97129 1.70012e-05 0)
30.332        (0.97129 1.70011e-05 0)
30.333        (0.97129 1.70009e-05 0)
30.334        (0.97129 1.70008e-05 0)
30.335        (0.971291 1.70006e-05 0)
30.336        (0.971291 1.70005e-05 0)
30.337        (0.971291 1.70004e-05 0)
30.338        (0.971291 1.70002e-05 0)
30.339        (0.971291 1.70001e-05 0)
30.34         (0.971292 1.69999e-05 0)
30.341        (0.971292 1.69998e-05 0)
30.342        (0.971292 1.69996e-05 0)
30.343        (0.971292 1.69995e-05 0)
30.344        (0.971292 1.69993e-05 0)
30.345        (0.971293 1.69992e-05 0)
30.346        (0.971293 1.69991e-05 0)
30.347        (0.971293 1.69989e-05 0)
30.348        (0.971293 1.69988e-05 0)
30.349        (0.971293 1.69986e-05 0)
30.35         (0.971293 1.69985e-05 0)
30.351        (0.971294 1.69983e-05 0)
30.352        (0.971294 1.69982e-05 0)
30.353        (0.971294 1.6998e-05 0)
30.354        (0.971294 1.69979e-05 0)
30.355        (0.971294 1.69977e-05 0)
30.356        (0.971295 1.69976e-05 0)
30.357        (0.971295 1.69975e-05 0)
30.358        (0.971295 1.69973e-05 0)
30.359        (0.971295 1.69972e-05 0)
30.36         (0.971295 1.6997e-05 0)
30.361        (0.971296 1.69969e-05 0)
30.362        (0.971296 1.69967e-05 0)
30.363        (0.971296 1.69966e-05 0)
30.364        (0.971296 1.69964e-05 0)
30.365        (0.971296 1.69963e-05 0)
30.366        (0.971297 1.69962e-05 0)
30.367        (0.971297 1.6996e-05 0)
30.368        (0.971297 1.69959e-05 0)
30.369        (0.971297 1.69957e-05 0)
30.37         (0.971297 1.69956e-05 0)
30.371        (0.971297 1.69954e-05 0)
30.372        (0.971298 1.69953e-05 0)
30.373        (0.971298 1.69951e-05 0)
30.374        (0.971298 1.6995e-05 0)
30.375        (0.971298 1.69949e-05 0)
30.376        (0.971298 1.69947e-05 0)
30.377        (0.971299 1.69946e-05 0)
30.378        (0.971299 1.69944e-05 0)
30.379        (0.971299 1.69943e-05 0)
30.38         (0.971299 1.69941e-05 0)
30.381        (0.971299 1.6994e-05 0)
30.382        (0.9713 1.69938e-05 0)
30.383        (0.9713 1.69937e-05 0)
30.384        (0.9713 1.69935e-05 0)
30.385        (0.9713 1.69934e-05 0)
30.386        (0.9713 1.69933e-05 0)
30.387        (0.971301 1.69931e-05 0)
30.388        (0.971301 1.6993e-05 0)
30.389        (0.971301 1.69928e-05 0)
30.39         (0.971301 1.69927e-05 0)
30.391        (0.971301 1.69925e-05 0)
30.392        (0.971301 1.69924e-05 0)
30.393        (0.971302 1.69922e-05 0)
30.394        (0.971302 1.69921e-05 0)
30.395        (0.971302 1.6992e-05 0)
30.396        (0.971302 1.69918e-05 0)
30.397        (0.971302 1.69917e-05 0)
30.398        (0.971303 1.69915e-05 0)
30.399        (0.971303 1.69914e-05 0)
30.4          (0.971303 1.69912e-05 0)
30.401        (0.971303 1.69911e-05 0)
30.402        (0.971303 1.69909e-05 0)
30.403        (0.971304 1.69908e-05 0)
30.404        (0.971304 1.69906e-05 0)
30.405        (0.971304 1.69905e-05 0)
30.406        (0.971304 1.69904e-05 0)
30.407        (0.971304 1.69902e-05 0)
30.408        (0.971304 1.69901e-05 0)
30.409        (0.971305 1.69899e-05 0)
30.41         (0.971305 1.69898e-05 0)
30.411        (0.971305 1.69896e-05 0)
30.412        (0.971305 1.69895e-05 0)
30.413        (0.971305 1.69893e-05 0)
30.414        (0.971306 1.69892e-05 0)
30.415        (0.971306 1.69891e-05 0)
30.416        (0.971306 1.69889e-05 0)
30.417        (0.971306 1.69888e-05 0)
30.418        (0.971306 1.69886e-05 0)
30.419        (0.971307 1.69885e-05 0)
30.42         (0.971307 1.69883e-05 0)
30.421        (0.971307 1.69882e-05 0)
30.422        (0.971307 1.6988e-05 0)
30.423        (0.971307 1.69879e-05 0)
30.424        (0.971307 1.69877e-05 0)
30.425        (0.971308 1.69876e-05 0)
30.426        (0.971308 1.69875e-05 0)
30.427        (0.971308 1.69873e-05 0)
30.428        (0.971308 1.69872e-05 0)
30.429        (0.971308 1.6987e-05 0)
30.43         (0.971309 1.69869e-05 0)
30.431        (0.971309 1.69867e-05 0)
30.432        (0.971309 1.69866e-05 0)
30.433        (0.971309 1.69864e-05 0)
30.434        (0.971309 1.69863e-05 0)
30.435        (0.97131 1.69862e-05 0)
30.436        (0.97131 1.6986e-05 0)
30.437        (0.97131 1.69859e-05 0)
30.438        (0.97131 1.69857e-05 0)
30.439        (0.97131 1.69856e-05 0)
30.44         (0.97131 1.69854e-05 0)
30.441        (0.971311 1.69853e-05 0)
30.442        (0.971311 1.69851e-05 0)
30.443        (0.971311 1.6985e-05 0)
30.444        (0.971311 1.69848e-05 0)
30.445        (0.971311 1.69847e-05 0)
30.446        (0.971312 1.69845e-05 0)
30.447        (0.971312 1.69844e-05 0)
30.448        (0.971312 1.69843e-05 0)
30.449        (0.971312 1.69841e-05 0)
30.45         (0.971312 1.6984e-05 0)
30.451        (0.971313 1.69838e-05 0)
30.452        (0.971313 1.69837e-05 0)
30.453        (0.971313 1.69835e-05 0)
30.454        (0.971313 1.69834e-05 0)
30.455        (0.971313 1.69832e-05 0)
30.456        (0.971313 1.69831e-05 0)
30.457        (0.971314 1.69829e-05 0)
30.458        (0.971314 1.69828e-05 0)
30.459        (0.971314 1.69827e-05 0)
30.46         (0.971314 1.69825e-05 0)
30.461        (0.971314 1.69824e-05 0)
30.462        (0.971315 1.69822e-05 0)
30.463        (0.971315 1.69821e-05 0)
30.464        (0.971315 1.69819e-05 0)
30.465        (0.971315 1.69818e-05 0)
30.466        (0.971315 1.69816e-05 0)
30.467        (0.971315 1.69815e-05 0)
30.468        (0.971316 1.69813e-05 0)
30.469        (0.971316 1.69812e-05 0)
30.47         (0.971316 1.6981e-05 0)
30.471        (0.971316 1.69809e-05 0)
30.472        (0.971316 1.69808e-05 0)
30.473        (0.971317 1.69806e-05 0)
30.474        (0.971317 1.69805e-05 0)
30.475        (0.971317 1.69803e-05 0)
30.476        (0.971317 1.69802e-05 0)
30.477        (0.971317 1.698e-05 0)
30.478        (0.971317 1.69799e-05 0)
30.479        (0.971318 1.69797e-05 0)
30.48         (0.971318 1.69796e-05 0)
30.481        (0.971318 1.69794e-05 0)
30.482        (0.971318 1.69793e-05 0)
30.483        (0.971318 1.69791e-05 0)
30.484        (0.971319 1.6979e-05 0)
30.485        (0.971319 1.69789e-05 0)
30.486        (0.971319 1.69787e-05 0)
30.487        (0.971319 1.69786e-05 0)
30.488        (0.971319 1.69784e-05 0)
30.489        (0.971319 1.69783e-05 0)
30.49         (0.97132 1.69781e-05 0)
30.491        (0.97132 1.6978e-05 0)
30.492        (0.97132 1.69778e-05 0)
30.493        (0.97132 1.69777e-05 0)
30.494        (0.97132 1.69775e-05 0)
30.495        (0.971321 1.69774e-05 0)
30.496        (0.971321 1.69772e-05 0)
30.497        (0.971321 1.69771e-05 0)
30.498        (0.971321 1.69769e-05 0)
30.499        (0.971321 1.69768e-05 0)
30.5          (0.971321 1.69766e-05 0)
30.501        (0.971322 1.69765e-05 0)
30.502        (0.971322 1.69764e-05 0)
30.503        (0.971322 1.69762e-05 0)
30.504        (0.971322 1.69761e-05 0)
30.505        (0.971322 1.69759e-05 0)
30.506        (0.971323 1.69758e-05 0)
30.507        (0.971323 1.69756e-05 0)
30.508        (0.971323 1.69755e-05 0)
30.509        (0.971323 1.69753e-05 0)
30.51         (0.971323 1.69752e-05 0)
30.511        (0.971323 1.6975e-05 0)
30.512        (0.971324 1.69749e-05 0)
30.513        (0.971324 1.69747e-05 0)
30.514        (0.971324 1.69746e-05 0)
30.515        (0.971324 1.69744e-05 0)
30.516        (0.971324 1.69743e-05 0)
30.517        (0.971325 1.69741e-05 0)
30.518        (0.971325 1.6974e-05 0)
30.519        (0.971325 1.69738e-05 0)
30.52         (0.971325 1.69737e-05 0)
30.521        (0.971325 1.69735e-05 0)
30.522        (0.971325 1.69734e-05 0)
30.523        (0.971326 1.69732e-05 0)
30.524        (0.971326 1.69731e-05 0)
30.525        (0.971326 1.69729e-05 0)
30.526        (0.971326 1.69728e-05 0)
30.527        (0.971326 1.69726e-05 0)
30.528        (0.971327 1.69725e-05 0)
30.529        (0.971327 1.69723e-05 0)
30.53         (0.971327 1.69722e-05 0)
30.531        (0.971327 1.6972e-05 0)
30.532        (0.971327 1.69719e-05 0)
30.533        (0.971327 1.69717e-05 0)
30.534        (0.971328 1.69716e-05 0)
30.535        (0.971328 1.69714e-05 0)
30.536        (0.971328 1.69713e-05 0)
30.537        (0.971328 1.69711e-05 0)
30.538        (0.971328 1.6971e-05 0)
30.539        (0.971328 1.69708e-05 0)
30.54         (0.971329 1.69707e-05 0)
30.541        (0.971329 1.69705e-05 0)
30.542        (0.971329 1.69704e-05 0)
30.543        (0.971329 1.69702e-05 0)
30.544        (0.971329 1.69701e-05 0)
30.545        (0.97133 1.69699e-05 0)
30.546        (0.97133 1.69698e-05 0)
30.547        (0.97133 1.69696e-05 0)
30.548        (0.97133 1.69695e-05 0)
30.549        (0.97133 1.69693e-05 0)
30.55         (0.97133 1.69692e-05 0)
30.551        (0.971331 1.69691e-05 0)
30.552        (0.971331 1.69689e-05 0)
30.553        (0.971331 1.69687e-05 0)
30.554        (0.971331 1.69686e-05 0)
30.555        (0.971331 1.69684e-05 0)
30.556        (0.971332 1.69683e-05 0)
30.557        (0.971332 1.69681e-05 0)
30.558        (0.971332 1.6968e-05 0)
30.559        (0.971332 1.69678e-05 0)
30.56         (0.971332 1.69677e-05 0)
30.561        (0.971332 1.69675e-05 0)
30.562        (0.971333 1.69674e-05 0)
30.563        (0.971333 1.69672e-05 0)
30.564        (0.971333 1.69671e-05 0)
30.565        (0.971333 1.69669e-05 0)
30.566        (0.971333 1.69668e-05 0)
30.567        (0.971333 1.69666e-05 0)
30.568        (0.971334 1.69665e-05 0)
30.569        (0.971334 1.69663e-05 0)
30.57         (0.971334 1.69662e-05 0)
30.571        (0.971334 1.6966e-05 0)
30.572        (0.971334 1.69659e-05 0)
30.573        (0.971335 1.69657e-05 0)
30.574        (0.971335 1.69656e-05 0)
30.575        (0.971335 1.69654e-05 0)
30.576        (0.971335 1.69653e-05 0)
30.577        (0.971335 1.69651e-05 0)
30.578        (0.971335 1.6965e-05 0)
30.579        (0.971336 1.69648e-05 0)
30.58         (0.971336 1.69646e-05 0)
30.581        (0.971336 1.69645e-05 0)
30.582        (0.971336 1.69643e-05 0)
30.583        (0.971336 1.69642e-05 0)
30.584        (0.971336 1.69641e-05 0)
30.585        (0.971337 1.69639e-05 0)
30.586        (0.971337 1.69637e-05 0)
30.587        (0.971337 1.69636e-05 0)
30.588        (0.971337 1.69634e-05 0)
30.589        (0.971337 1.69633e-05 0)
30.59         (0.971338 1.69631e-05 0)
30.591        (0.971338 1.6963e-05 0)
30.592        (0.971338 1.69628e-05 0)
30.593        (0.971338 1.69627e-05 0)
30.594        (0.971338 1.69625e-05 0)
30.595        (0.971338 1.69624e-05 0)
30.596        (0.971339 1.69622e-05 0)
30.597        (0.971339 1.69621e-05 0)
30.598        (0.971339 1.69619e-05 0)
30.599        (0.971339 1.69618e-05 0)
30.6          (0.971339 1.69616e-05 0)
30.601        (0.971339 1.69614e-05 0)
30.602        (0.97134 1.69613e-05 0)
30.603        (0.97134 1.69611e-05 0)
30.604        (0.97134 1.6961e-05 0)
30.605        (0.97134 1.69608e-05 0)
30.606        (0.97134 1.69607e-05 0)
30.607        (0.97134 1.69605e-05 0)
30.608        (0.971341 1.69604e-05 0)
30.609        (0.971341 1.69602e-05 0)
30.61         (0.971341 1.69601e-05 0)
30.611        (0.971341 1.69599e-05 0)
30.612        (0.971341 1.69598e-05 0)
30.613        (0.971342 1.69596e-05 0)
30.614        (0.971342 1.69595e-05 0)
30.615        (0.971342 1.69593e-05 0)
30.616        (0.971342 1.69591e-05 0)
30.617        (0.971342 1.6959e-05 0)
30.618        (0.971342 1.69588e-05 0)
30.619        (0.971343 1.69587e-05 0)
30.62         (0.971343 1.69585e-05 0)
30.621        (0.971343 1.69584e-05 0)
30.622        (0.971343 1.69582e-05 0)
30.623        (0.971343 1.69581e-05 0)
30.624        (0.971343 1.69579e-05 0)
30.625        (0.971344 1.69578e-05 0)
30.626        (0.971344 1.69576e-05 0)
30.627        (0.971344 1.69575e-05 0)
30.628        (0.971344 1.69573e-05 0)
30.629        (0.971344 1.69572e-05 0)
30.63         (0.971344 1.6957e-05 0)
30.631        (0.971345 1.69568e-05 0)
30.632        (0.971345 1.69567e-05 0)
30.633        (0.971345 1.69565e-05 0)
30.634        (0.971345 1.69564e-05 0)
30.635        (0.971345 1.69562e-05 0)
30.636        (0.971346 1.69561e-05 0)
30.637        (0.971346 1.69559e-05 0)
30.638        (0.971346 1.69558e-05 0)
30.639        (0.971346 1.69556e-05 0)
30.64         (0.971346 1.69555e-05 0)
30.641        (0.971346 1.69553e-05 0)
30.642        (0.971347 1.69552e-05 0)
30.643        (0.971347 1.6955e-05 0)
30.644        (0.971347 1.69548e-05 0)
30.645        (0.971347 1.69547e-05 0)
30.646        (0.971347 1.69545e-05 0)
30.647        (0.971347 1.69544e-05 0)
30.648        (0.971348 1.69542e-05 0)
30.649        (0.971348 1.69541e-05 0)
30.65         (0.971348 1.69539e-05 0)
30.651        (0.971348 1.69538e-05 0)
30.652        (0.971348 1.69536e-05 0)
30.653        (0.971348 1.69535e-05 0)
30.654        (0.971349 1.69533e-05 0)
30.655        (0.971349 1.69531e-05 0)
30.656        (0.971349 1.6953e-05 0)
30.657        (0.971349 1.69528e-05 0)
30.658        (0.971349 1.69527e-05 0)
30.659        (0.971349 1.69525e-05 0)
30.66         (0.97135 1.69524e-05 0)
30.661        (0.97135 1.69522e-05 0)
30.662        (0.97135 1.69521e-05 0)
30.663        (0.97135 1.69519e-05 0)
30.664        (0.97135 1.69517e-05 0)
30.665        (0.97135 1.69516e-05 0)
30.666        (0.971351 1.69514e-05 0)
30.667        (0.971351 1.69513e-05 0)
30.668        (0.971351 1.69511e-05 0)
30.669        (0.971351 1.6951e-05 0)
30.67         (0.971351 1.69508e-05 0)
30.671        (0.971352 1.69507e-05 0)
30.672        (0.971352 1.69505e-05 0)
30.673        (0.971352 1.69503e-05 0)
30.674        (0.971352 1.69502e-05 0)
30.675        (0.971352 1.695e-05 0)
30.676        (0.971352 1.69499e-05 0)
30.677        (0.971353 1.69497e-05 0)
30.678        (0.971353 1.69496e-05 0)
30.679        (0.971353 1.69494e-05 0)
30.68         (0.971353 1.69493e-05 0)
30.681        (0.971353 1.69491e-05 0)
30.682        (0.971353 1.69489e-05 0)
30.683        (0.971354 1.69488e-05 0)
30.684        (0.971354 1.69486e-05 0)
30.685        (0.971354 1.69485e-05 0)
30.686        (0.971354 1.69483e-05 0)
30.687        (0.971354 1.69482e-05 0)
30.688        (0.971354 1.6948e-05 0)
30.689        (0.971355 1.69478e-05 0)
30.69         (0.971355 1.69477e-05 0)
30.691        (0.971355 1.69475e-05 0)
30.692        (0.971355 1.69474e-05 0)
30.693        (0.971355 1.69472e-05 0)
30.694        (0.971355 1.69471e-05 0)
30.695        (0.971356 1.69469e-05 0)
30.696        (0.971356 1.69468e-05 0)
30.697        (0.971356 1.69466e-05 0)
30.698        (0.971356 1.69464e-05 0)
30.699        (0.971356 1.69463e-05 0)
30.7          (0.971356 1.69461e-05 0)
30.701        (0.971357 1.6946e-05 0)
30.702        (0.971357 1.69458e-05 0)
30.703        (0.971357 1.69457e-05 0)
30.704        (0.971357 1.69455e-05 0)
30.705        (0.971357 1.69453e-05 0)
30.706        (0.971357 1.69452e-05 0)
30.707        (0.971358 1.6945e-05 0)
30.708        (0.971358 1.69449e-05 0)
30.709        (0.971358 1.69447e-05 0)
30.71         (0.971358 1.69446e-05 0)
30.711        (0.971358 1.69444e-05 0)
30.712        (0.971358 1.69442e-05 0)
30.713        (0.971359 1.69441e-05 0)
30.714        (0.971359 1.69439e-05 0)
30.715        (0.971359 1.69438e-05 0)
30.716        (0.971359 1.69436e-05 0)
30.717        (0.971359 1.69435e-05 0)
30.718        (0.971359 1.69433e-05 0)
30.719        (0.97136 1.69431e-05 0)
30.72         (0.97136 1.6943e-05 0)
30.721        (0.97136 1.69428e-05 0)
30.722        (0.97136 1.69427e-05 0)
30.723        (0.97136 1.69425e-05 0)
30.724        (0.97136 1.69423e-05 0)
30.725        (0.971361 1.69422e-05 0)
30.726        (0.971361 1.6942e-05 0)
30.727        (0.971361 1.69419e-05 0)
30.728        (0.971361 1.69417e-05 0)
30.729        (0.971361 1.69416e-05 0)
30.73         (0.971361 1.69414e-05 0)
30.731        (0.971362 1.69412e-05 0)
30.732        (0.971362 1.69411e-05 0)
30.733        (0.971362 1.69409e-05 0)
30.734        (0.971362 1.69408e-05 0)
30.735        (0.971362 1.69406e-05 0)
30.736        (0.971362 1.69404e-05 0)
30.737        (0.971363 1.69403e-05 0)
30.738        (0.971363 1.69401e-05 0)
30.739        (0.971363 1.694e-05 0)
30.74         (0.971363 1.69398e-05 0)
30.741        (0.971363 1.69397e-05 0)
30.742        (0.971363 1.69395e-05 0)
30.743        (0.971364 1.69393e-05 0)
30.744        (0.971364 1.69392e-05 0)
30.745        (0.971364 1.6939e-05 0)
30.746        (0.971364 1.69389e-05 0)
30.747        (0.971364 1.69387e-05 0)
30.748        (0.971364 1.69386e-05 0)
30.749        (0.971365 1.69384e-05 0)
30.75         (0.971365 1.69382e-05 0)
30.751        (0.971365 1.69381e-05 0)
30.752        (0.971365 1.69379e-05 0)
30.753        (0.971365 1.69378e-05 0)
30.754        (0.971365 1.69376e-05 0)
30.755        (0.971366 1.69374e-05 0)
30.756        (0.971366 1.69373e-05 0)
30.757        (0.971366 1.69371e-05 0)
30.758        (0.971366 1.6937e-05 0)
30.759        (0.971366 1.69368e-05 0)
30.76         (0.971366 1.69366e-05 0)
30.761        (0.971367 1.69365e-05 0)
30.762        (0.971367 1.69363e-05 0)
30.763        (0.971367 1.69361e-05 0)
30.764        (0.971367 1.6936e-05 0)
30.765        (0.971367 1.69358e-05 0)
30.766        (0.971367 1.69357e-05 0)
30.767        (0.971368 1.69355e-05 0)
30.768        (0.971368 1.69354e-05 0)
30.769        (0.971368 1.69352e-05 0)
30.77         (0.971368 1.6935e-05 0)
30.771        (0.971368 1.69349e-05 0)