/*--------------------------------*- C++ -*----------------------------------*\
| =========                 |                                                 |
| \\      /  F ield         | OpenFOAM: The Open Source CFD Toolbox           |
|  \\    /   O peration     | Version:  2406                                  |
|   \\  /    A nd           | Website:  www.openfoam.com                      |
|    \\/     M anipulation  |                                                 |
\*---------------------------------------------------------------------------*/
FoamFile
{
    version     2.0;
    format      ascii;
    arch        "LSB;label=32;scalar=64";
    class       volScalarField;
    location    "5.98";
    object      p;
}
// * * * * * * * * * * * * * * * * * * * * * * * * * * * * * * * * * * * * * //

dimensions      [0 2 -2 0 0 0 0];

internalField   nonuniform List<scalar> 
40000
(
1.26649e-08
-0.000123464
-0.000244877
-0.000357335
-0.000468413
-0.000580113
-0.000691965
-0.000803637
-0.000915079
-0.00102627
-0.00113719
-0.00124777
-0.001358
-0.00146782
-0.00157722
-0.00168615
-0.0017946
-0.00190253
-0.00200994
-0.0021168
-0.00222312
-0.00232888
-0.00243409
-0.00253875
-0.00264288
-0.0027465
-0.00284964
-0.00295234
-0.00305463
-0.00315658
-0.00325823
-0.00335967
-0.00346098
-0.00356224
-0.00366355
-0.00376504
-0.00386681
-0.00396901
-0.00407179
-0.00417529
-0.0042797
-0.0043852
-0.00449198
-0.00460025
-0.00471025
-0.00482219
-0.00493635
-0.00505297
-0.00517233
-0.00529473
-0.00542046
-0.00554985
-0.00568322
-0.00582091
-0.00596327
-0.00611067
-0.00626347
-0.00642207
-0.00658685
-0.00675821
-0.00693656
-0.00712229
-0.00731583
-0.00751759
-0.00772798
-0.00794741
-0.00817628
-0.00841497
-0.00866388
-0.00892336
-0.00919376
-0.00947539
-0.00976853
-0.0100734
-0.0103903
-0.0107192
-0.0110603
-0.0114136
-0.0117791
-0.0121564
-0.0125454
-0.0129456
-0.0133565
-0.0137774
-0.0142073
-0.0146452
-0.0150896
-0.0155391
-0.0159917
-0.0164452
-0.016897
-0.0173444
-0.0177837
-0.0182114
-0.0186231
-0.0190139
-0.0193785
-0.0197109
-0.0200045
-0.0202522
-0.00118173
-0.00130443
-0.00142509
-0.00153687
-0.00164732
-0.00175841
-0.00186967
-0.00198079
-0.00209171
-0.00220241
-0.00231287
-0.00242303
-0.00253287
-0.00264234
-0.00275141
-0.00286007
-0.00296827
-0.00307601
-0.00318326
-0.00329001
-0.00339626
-0.003502
-0.00360723
-0.00371197
-0.00381623
-0.00392003
-0.00402341
-0.00412641
-0.00422907
-0.00433144
-0.00443359
-0.00453561
-0.00463756
-0.00473955
-0.00484168
-0.00494408
-0.00504686
-0.00515017
-0.00525417
-0.00535902
-0.00546491
-0.00557201
-0.00568055
-0.00579074
-0.00590282
-0.00601704
-0.00613365
-0.00625294
-0.0063752
-0.00650073
-0.00662985
-0.00676291
-0.00690024
-0.00704221
-0.00718919
-0.00734157
-0.00749974
-0.00766412
-0.00783513
-0.00801318
-0.00819872
-0.00839219
-0.00859404
-0.00880471
-0.00902465
-0.00925431
-0.00949414
-0.00974456
-0.010006
-0.0102789
-0.0105636
-0.0108605
-0.0111699
-0.0114921
-0.0118274
-0.012176
-0.0125379
-0.0129134
-0.0133022
-0.0137044
-0.0141197
-0.0145477
-0.014988
-0.0154397
-0.0159022
-0.0163743
-0.0168547
-0.0173418
-0.0178337
-0.0183283
-0.0188229
-0.0193147
-0.0198
-0.0202752
-0.0207357
-0.0211766
-0.0215923
-0.0219766
-0.0223226
-0.0226227
-0.00238412
-0.002506
-0.00262584
-0.0027369
-0.00284667
-0.0029571
-0.00306774
-0.00317826
-0.00328861
-0.00339878
-0.00350873
-0.00361842
-0.00372782
-0.00383689
-0.0039456
-0.00405393
-0.00416185
-0.00426934
-0.00437638
-0.00448296
-0.00458908
-0.00469474
-0.00479993
-0.00490468
-0.00500899
-0.0051129
-0.00521644
-0.00531964
-0.00542256
-0.00552526
-0.0056278
-0.00573026
-0.00583273
-0.00593531
-0.00603811
-0.00614125
-0.00624487
-0.00634911
-0.00645414
-0.00656012
-0.00666725
-0.00677573
-0.00688578
-0.00699761
-0.00711149
-0.00722767
-0.00734643
-0.00746805
-0.00759285
-0.00772115
-0.00785329
-0.00798961
-0.00813049
-0.0082763
-0.00842745
-0.00858435
-0.00874741
-0.00891708
-0.00909381
-0.00927804
-0.00947025
-0.00967091
-0.00988051
-0.0100995
-0.0103285
-0.0105678
-0.010818
-0.0110796
-0.011353
-0.0116387
-0.0119371
-0.0122487
-0.0125739
-0.0129129
-0.0132661
-0.0136337
-0.0140161
-0.0144131
-0.014825
-0.0152516
-0.0156928
-0.0161483
-0.0166176
-0.0171001
-0.0175949
-0.0181011
-0.0186174
-0.0191421
-0.0196735
-0.0202094
-0.0207471
-0.0212836
-0.0218156
-0.0223389
-0.0228491
-0.023341
-0.023809
-0.0242465
-0.0246464
-0.0250008
-0.0036047
-0.0037257
-0.00384469
-0.00395499
-0.00406405
-0.00417379
-0.00428377
-0.00439367
-0.00450342
-0.00461303
-0.00472245
-0.00483165
-0.00494059
-0.00504923
-0.00515755
-0.00526553
-0.00537312
-0.00548033
-0.00558712
-0.0056935
-0.00579945
-0.00590497
-0.00601008
-0.00611477
-0.00621908
-0.00632302
-0.00642663
-0.00652996
-0.00663305
-0.00673596
-0.00683877
-0.00694155
-0.0070444
-0.00714742
-0.00725072
-0.00735444
-0.0074587
-0.00756367
-0.0076695
-0.00777638
-0.00788451
-0.00799409
-0.00810535
-0.00821853
-0.00833388
-0.00845168
-0.00857222
-0.0086958
-0.00882274
-0.00895338
-0.00908808
-0.00922721
-0.00937116
-0.00952032
-0.00967512
-0.009836
-0.0100034
-0.0101778
-0.0103596
-0.0105495
-0.0107477
-0.0109549
-0.0111716
-0.0113984
-0.0116356
-0.0118839
-0.0121438
-0.0124159
-0.0127006
-0.0129984
-0.0133099
-0.0136355
-0.0139757
-0.0143308
-0.0147013
-0.0150874
-0.0154894
-0.0159075
-0.0163418
-0.0167923
-0.0172589
-0.0177413
-0.0182392
-0.0187519
-0.0192788
-0.0198187
-0.0203706
-0.0209328
-0.0215036
-0.0220807
-0.0226615
-0.023243
-0.0238217
-0.0243936
-0.024954
-0.0254977
-0.0260187
-0.0265105
-0.0269655
-0.0273756
-0.00484102
-0.00496113
-0.00507926
-0.00518879
-0.00529713
-0.00540618
-0.0055155
-0.00562476
-0.00573392
-0.00584297
-0.00595186
-0.00606056
-0.00616903
-0.00627724
-0.00638517
-0.00649278
-0.00660004
-0.00670695
-0.00681347
-0.00691962
-0.00702536
-0.00713072
-0.00723569
-0.00734028
-0.00744452
-0.00754842
-0.00765204
-0.0077554
-0.00785856
-0.00796158
-0.00806454
-0.00816752
-0.0082706
-0.0083739
-0.00847753
-0.00858162
-0.00868632
-0.00879178
-0.00889818
-0.0090057
-0.00911454
-0.00922492
-0.00933707
-0.00945124
-0.0095677
-0.00968674
-0.00980865
-0.00993375
-0.0100624
-0.0101949
-0.0103317
-0.0104731
-0.0106195
-0.0107715
-0.0109294
-0.0110936
-0.0112647
-0.0114432
-0.0116295
-0.0118242
-0.0120278
-0.0122408
-0.0124639
-0.0126976
-0.0129424
-0.0131989
-0.0134678
-0.0137495
-0.0140446
-0.0143538
-0.0146775
-0.0150163
-0.0153707
-0.0157412
-0.0161281
-0.0165319
-0.0169528
-0.0173912
-0.0178472
-0.0183209
-0.0188121
-0.0193208
-0.0198466
-0.0203891
-0.0209474
-0.0215206
-0.0221076
-0.0227069
-0.0233167
-0.0239347
-0.0245585
-0.0251849
-0.0258104
-0.0264309
-0.0270418
-0.0276375
-0.0282122
-0.0287588
-0.0292699
-0.0297367
-0.00609072
-0.00620997
-0.00632726
-0.00643605
-0.00654369
-0.00665207
-0.00676075
-0.00686941
-0.006978
-0.0070865
-0.00719488
-0.0073031
-0.00741112
-0.00751892
-0.00762646
-0.00773371
-0.00784065
-0.00794725
-0.00805351
-0.0081594
-0.00826494
-0.0083701
-0.0084749
-0.00857935
-0.00868347
-0.00878728
-0.00889082
-0.00899414
-0.00909727
-0.0092003
-0.00930328
-0.00940631
-0.00950947
-0.00961288
-0.00971665
-0.00982091
-0.00992582
-0.0100315
-0.0101382
-0.0102461
-0.0103553
-0.0104662
-0.0105788
-0.0106936
-0.0108108
-0.0109306
-0.0110535
-0.0111796
-0.0113094
-0.0114433
-0.0115815
-0.0117246
-0.011873
-0.0120271
-0.0121874
-0.0123543
-0.0125284
-0.0127102
-0.0129003
-0.0130991
-0.0133072
-0.0135253
-0.0137539
-0.0139937
-0.0142452
-0.0145091
-0.0147859
-0.0150764
-0.0153812
-0.0157007
-0.0160358
-0.0163869
-0.0167546
-0.0171394
-0.0175419
-0.0179624
-0.0184014
-0.0188592
-0.019336
-0.0198319
-0.0203471
-0.0208812
-0.0214342
-0.0220055
-0.0225945
-0.0232003
-0.0238219
-0.0244576
-0.0251058
-0.0257644
-0.0264306
-0.0271016
-0.0277736
-0.0284426
-0.0291038
-0.0297518
-0.0303802
-0.0309821
-0.0315497
-0.0320739
-0.00735159
-0.00747003
-0.00758654
-0.00769464
-0.00780163
-0.0079094
-0.0080175
-0.0081256
-0.00823366
-0.00834167
-0.00844958
-0.00855737
-0.00866499
-0.00877241
-0.00887959
-0.00898651
-0.00909315
-0.00919947
-0.00930547
-0.00941113
-0.00951643
-0.00962139
-0.009726
-0.00983028
-0.00993424
-0.0100379
-0.0101413
-0.0102445
-0.0103475
-0.0104504
-0.0105533
-0.0106562
-0.0107593
-0.0108626
-0.0109663
-0.0110706
-0.0111754
-0.0112811
-0.0113878
-0.0114957
-0.011605
-0.0117159
-0.0118287
-0.0119437
-0.0120611
-0.0121813
-0.0123045
-0.0124312
-0.0125616
-0.0126962
-0.0128353
-0.0129795
-0.0131291
-0.0132847
-0.0134466
-0.0136155
-0.0137918
-0.0139761
-0.014169
-0.0143711
-0.0145829
-0.0148051
-0.0150384
-0.0152833
-0.0155405
-0.0158108
-0.0160947
-0.016393
-0.0167063
-0.0170353
-0.0173806
-0.017743
-0.018123
-0.0185212
-0.0189382
-0.0193744
-0.0198304
-0.0203066
-0.0208032
-0.0213204
-0.0218584
-0.0224171
-0.0229962
-0.0235955
-0.0242143
-0.0248519
-0.0255071
-0.0261785
-0.0268645
-0.0275628
-0.0282709
-0.0289858
-0.0297039
-0.030421
-0.0311322
-0.0318321
-0.0325142
-0.0331715
-0.0337957
-0.0343778
-0.00862154
-0.00873927
-0.00885508
-0.00896258
-0.00906901
-0.00917625
-0.00928384
-0.00939146
-0.00949908
-0.00960667
-0.00971419
-0.00982161
-0.00992889
-0.010036
-0.0101429
-0.0102495
-0.0103559
-0.010462
-0.0105677
-0.0106732
-0.0107783
-0.010883
-0.0109874
-0.0110915
-0.0111953
-0.0112987
-0.0114019
-0.0115049
-0.0116077
-0.0117104
-0.0118131
-0.0119157
-0.0120186
-0.0121216
-0.012225
-0.0123289
-0.0124335
-0.0125389
-0.0126452
-0.0127528
-0.0128618
-0.0129724
-0.0130849
-0.0131996
-0.0133168
-0.0134368
-0.0135598
-0.0136864
-0.0138168
-0.0139515
-0.0140909
-0.0142354
-0.0143855
-0.0145417
-0.0147045
-0.0148745
-0.0150522
-0.0152381
-0.015433
-0.0156374
-0.0158519
-0.0160773
-0.0163141
-0.0165632
-0.0168251
-0.0171007
-0.0173906
-0.0176956
-0.0180163
-0.0183536
-0.0187082
-0.0190807
-0.0194718
-0.0198822
-0.0203126
-0.0207634
-0.0212353
-0.0217287
-0.022244
-0.0227814
-0.0233411
-0.0239232
-0.0245275
-0.0251537
-0.0258014
-0.0264696
-0.0271575
-0.0278636
-0.0285864
-0.0293236
-0.0300727
-0.0308308
-0.0315942
-0.0323587
-0.0331194
-0.0338707
-0.0346062
-0.0353184
-0.0359992
-0.0366391
-0.00989864
-0.0100158
-0.010131
-0.010238
-0.010344
-0.0104508
-0.010558
-0.0106653
-0.0107726
-0.0108798
-0.0109871
-0.0110942
-0.0112012
-0.0113081
-0.0114148
-0.0115212
-0.0116274
-0.0117333
-0.0118388
-0.0119441
-0.012049
-0.0121536
-0.0122578
-0.0123617
-0.0124652
-0.0125684
-0.0126714
-0.012774
-0.0128765
-0.0129789
-0.0130811
-0.0131834
-0.0132858
-0.0133884
-0.0134912
-0.0135946
-0.0136986
-0.0138033
-0.013909
-0.0140158
-0.0141241
-0.014234
-0.0143457
-0.0144596
-0.014576
-0.0146952
-0.0148175
-0.0149434
-0.0150731
-0.0152072
-0.015346
-0.0154901
-0.0156399
-0.0157959
-0.0159587
-0.0161289
-0.016307
-0.0164936
-0.0166895
-0.0168952
-0.0171114
-0.0173388
-0.0175782
-0.0178303
-0.0180959
-0.0183756
-0.0186703
-0.0189808
-0.0193078
-0.0196522
-0.0200147
-0.0203961
-0.0207972
-0.0212186
-0.0216611
-0.0221254
-0.0226119
-0.0231213
-0.023654
-0.0242104
-0.0247907
-0.025395
-0.0260232
-0.0266752
-0.0273504
-0.0280482
-0.0287676
-0.0295074
-0.0302658
-0.0310408
-0.03183
-0.0326303
-0.033438
-0.0342491
-0.0350584
-0.0358604
-0.0366485
-0.0374152
-0.0381521
-0.0388495
-0.0111811
-0.0112978
-0.0114127
-0.0115193
-0.011625
-0.0117315
-0.0118385
-0.0119455
-0.0120526
-0.0121596
-0.0122667
-0.0123737
-0.0124806
-0.0125873
-0.0126939
-0.0128002
-0.0129063
-0.013012
-0.0131175
-0.0132226
-0.0133274
-0.0134318
-0.0135358
-0.0136395
-0.0137428
-0.0138457
-0.0139483
-0.0140506
-0.0141527
-0.0142546
-0.0143563
-0.014458
-0.0145597
-0.0146616
-0.0147637
-0.0148662
-0.0149692
-0.015073
-0.0151776
-0.0152834
-0.0153904
-0.0154991
-0.0156095
-0.0157221
-0.0158371
-0.0159549
-0.0160758
-0.0162003
-0.0163286
-0.0164613
-0.0165988
-0.0167416
-0.0168902
-0.0170451
-0.017207
-0.0173764
-0.0175539
-0.0177402
-0.017936
-0.0181419
-0.0183587
-0.0185871
-0.0188278
-0.0190818
-0.0193497
-0.0196324
-0.0199307
-0.0202454
-0.0205775
-0.0209277
-0.0212969
-0.0216859
-0.0220956
-0.0225267
-0.02298
-0.0234563
-0.0239562
-0.0244803
-0.0250291
-0.0256032
-0.0262027
-0.0268279
-0.0274787
-0.0281551
-0.0288567
-0.0295828
-0.0303325
-0.0311046
-0.0318975
-0.0327092
-0.0335372
-0.0343785
-0.0352295
-0.0360859
-0.0369429
-0.0377946
-0.0386344
-0.0394548
-0.040247
-0.0410013
-0.0124673
-0.0125838
-0.0126984
-0.0128049
-0.0129105
-0.0130169
-0.0131237
-0.0132307
-0.0133377
-0.0134448
-0.0135518
-0.0136588
-0.0137657
-0.0138725
-0.013979
-0.0140853
-0.0141914
-0.0142972
-0.0144026
-0.0145076
-0.0146123
-0.0147166
-0.0148204
-0.0149239
-0.0150269
-0.0151295
-0.0152318
-0.0153336
-0.0154352
-0.0155365
-0.0156375
-0.0157384
-0.0158393
-0.0159402
-0.0160413
-0.0161426
-0.0162444
-0.0163468
-0.01645
-0.0165541
-0.0166595
-0.0167664
-0.016875
-0.0169857
-0.0170987
-0.0172144
-0.0173332
-0.0174555
-0.0175816
-0.0177121
-0.0178474
-0.017988
-0.0181345
-0.0182874
-0.0184473
-0.0186149
-0.0187908
-0.0189756
-0.0191702
-0.0193751
-0.0195913
-0.0198194
-0.0200603
-0.0203148
-0.0205838
-0.0208682
-0.0211687
-0.0214864
-0.0218221
-0.0221768
-0.0225513
-0.0229466
-0.0233635
-0.023803
-0.0242658
-0.0247527
-0.0252645
-0.0258019
-0.0263655
-0.0269558
-0.0275731
-0.0282178
-0.02889
-0.0295894
-0.0303159
-0.0310689
-0.0318475
-0.0326506
-0.0334767
-0.0343236
-0.0351891
-0.0360702
-0.0369631
-0.0378638
-0.0387672
-0.0396674
-0.0405578
-0.0414307
-0.0422773
-0.0430876
-0.0137557
-0.0138723
-0.0139869
-0.0140934
-0.0141991
-0.0143056
-0.0144126
-0.0145197
-0.0146268
-0.0147341
-0.0148413
-0.0149484
-0.0150555
-0.0151624
-0.0152691
-0.0153756
-0.0154818
-0.0155876
-0.0156931
-0.0157982
-0.0159028
-0.016007
-0.0161107
-0.016214
-0.0163167
-0.016419
-0.0165208
-0.0166221
-0.0167231
-0.0168236
-0.0169238
-0.0170237
-0.0171235
-0.0172232
-0.0173229
-0.0174228
-0.0175229
-0.0176236
-0.0177248
-0.017827
-0.0179302
-0.0180348
-0.0181409
-0.018249
-0.0183593
-0.0184723
-0.0185881
-0.0187074
-0.0188305
-0.0189579
-0.0190901
-0.0192275
-0.0193709
-0.0195207
-0.0196776
-0.0198423
-0.0200154
-0.0201976
-0.0203897
-0.0205925
-0.0208068
-0.0210334
-0.0212731
-0.0215269
-0.0217957
-0.0220803
-0.0223818
-0.022701
-0.023039
-0.0233967
-0.0237752
-0.0241753
-0.024598
-0.0250443
-0.0255151
-0.0260112
-0.0265336
-0.0270828
-0.0276597
-0.0282648
-0.0288985
-0.0295612
-0.0302531
-0.0309742
-0.0317242
-0.0325027
-0.0333087
-0.0341414
-0.0349991
-0.0358799
-0.0367815
-0.0377008
-0.0386343
-0.0395777
-0.0405261
-0.0414735
-0.0424132
-0.0433374
-0.0442371
-0.0451023
-0.0150452
-0.015162
-0.0152769
-0.0153838
-0.0154897
-0.0155966
-0.0157039
-0.0158113
-0.0159189
-0.0160265
-0.0161341
-0.0162416
-0.016349
-0.0164563
-0.0165633
-0.0166701
-0.0167765
-0.0168826
-0.0169882
-0.0170934
-0.0171981
-0.0173023
-0.017406
-0.017509
-0.0176115
-0.0177134
-0.0178147
-0.0179154
-0.0180156
-0.0181152
-0.0182144
-0.0183132
-0.0184116
-0.0185098
-0.0186078
-0.0187058
-0.018804
-0.0189024
-0.0190013
-0.0191009
-0.0192014
-0.019303
-0.0194061
-0.0195109
-0.0196178
-0.0197272
-0.0198393
-0.0199548
-0.0200739
-0.0201973
-0.0203253
-0.0204586
-0.0205978
-0.0207434
-0.0208962
-0.0210568
-0.0212259
-0.0214042
-0.0215927
-0.021792
-0.0220031
-0.0222268
-0.022464
-0.0227157
-0.0229828
-0.0232663
-0.0235672
-0.0238865
-0.0242254
-0.0245847
-0.0249655
-0.025369
-0.0257961
-0.0262478
-0.0267251
-0.0272289
-0.0277602
-0.0283198
-0.0289085
-0.0295269
-0.0301755
-0.0308548
-0.031565
-0.0323061
-0.0330781
-0.0338805
-0.0347125
-0.0355732
-0.036461
-0.0373741
-0.0383102
-0.0392663
-0.0402388
-0.0412235
-0.0422153
-0.0432084
-0.0441958
-0.0451698
-0.0461212
-0.0470398
-0.0163345
-0.0164519
-0.0165674
-0.0166748
-0.0167814
-0.0168888
-0.0169968
-0.0171048
-0.017213
-0.0173212
-0.0174294
-0.0175376
-0.0176456
-0.0177534
-0.0178609
-0.0179682
-0.018075
-0.0181815
-0.0182874
-0.0183929
-0.0184977
-0.0186019
-0.0187055
-0.0188084
-0.0189106
-0.0190121
-0.0191128
-0.0192128
-0.0193121
-0.0194107
-0.0195087
-0.0196061
-0.0197029
-0.0197993
-0.0198953
-0.0199911
-0.0200868
-0.0201826
-0.0202786
-0.020375
-0.0204722
-0.0205702
-0.0206695
-0.0207704
-0.020873
-0.020978
-0.0210856
-0.0211963
-0.0213105
-0.0214288
-0.0215517
-0.0216797
-0.0218136
-0.0219539
-0.0221013
-0.0222565
-0.0224204
-0.0225936
-0.022777
-0.0229716
-0.023178
-0.0233975
-0.0236307
-0.0238788
-0.0241429
-0.0244238
-0.0247227
-0.0250407
-0.0253788
-0.0257382
-0.02612
-0.0265253
-0.0269551
-0.0274107
-0.027893
-0.028403
-0.0289418
-0.0295102
-0.0301092
-0.0307393
-0.0314012
-0.0320955
-0.0328225
-0.0335822
-0.0343746
-0.0351993
-0.0360557
-0.0369428
-0.0378592
-0.038803
-0.039772
-0.0407632
-0.0417731
-0.0427974
-0.043831
-0.0448681
-0.0459017
-0.0469238
-0.0479254
-0.0488958
-0.0176227
-0.0177411
-0.0178576
-0.0179658
-0.0180732
-0.0181816
-0.0182905
-0.0183994
-0.0185085
-0.0186176
-0.0187267
-0.0188357
-0.0189445
-0.0190531
-0.0191614
-0.0192693
-0.0193768
-0.0194838
-0.0195902
-0.019696
-0.0198011
-0.0199054
-0.020009
-0.0201118
-0.0202137
-0.0203147
-0.0204148
-0.020514
-0.0206123
-0.0207098
-0.0208063
-0.020902
-0.0209969
-0.0210912
-0.0211848
-0.021278
-0.0213708
-0.0214634
-0.0215559
-0.0216487
-0.0217418
-0.0218356
-0.0219304
-0.0220264
-0.0221241
-0.0222237
-0.0223258
-0.0224307
-0.022539
-0.0226512
-0.0227679
-0.0228895
-0.0230169
-0.0231506
-0.0232914
-0.02344
-0.0235973
-0.023764
-0.023941
-0.0241293
-0.0243298
-0.0245435
-0.0247714
-0.0250145
-0.0252739
-0.0255507
-0.0258461
-0.0261612
-0.0264971
-0.026855
-0.0272362
-0.0276418
-0.0280729
-0.0285308
-0.0290165
-0.0295312
-0.0300759
-0.0306516
-0.0312592
-0.0318995
-0.0325733
-0.033281
-0.0340231
-0.0347998
-0.0356111
-0.0364566
-0.0373357
-0.0382477
-0.039191
-0.0401639
-0.0411641
-0.0421887
-0.0432343
-0.0442965
-0.0453702
-0.0464495
-0.0475275
-0.048596
-0.0496459
-0.0506665
-0.0189091
-0.0190288
-0.0191466
-0.019256
-0.0193647
-0.0194743
-0.0195844
-0.0196946
-0.0198049
-0.0199152
-0.0200255
-0.0201356
-0.0202455
-0.0203551
-0.0204644
-0.0205732
-0.0206815
-0.0207892
-0.0208962
-0.0210025
-0.021108
-0.0212126
-0.0213162
-0.0214189
-0.0215205
-0.0216211
-0.0217205
-0.0218188
-0.0219159
-0.022012
-0.0221069
-0.0222006
-0.0222934
-0.0223852
-0.022476
-0.0225661
-0.0226555
-0.0227443
-0.0228329
-0.0229212
-0.0230097
-0.0230985
-0.0231879
-0.0232783
-0.0233701
-0.0234635
-0.0235591
-0.0236572
-0.0237585
-0.0238635
-0.0239727
-0.0240867
-0.0242063
-0.0243322
-0.0244651
-0.0246057
-0.024755
-0.0249138
-0.0250831
-0.0252637
-0.0254567
-0.0256632
-0.0258841
-0.0261207
-0.0263739
-0.0266451
-0.0269354
-0.027246
-0.0275782
-0.0279331
-0.0283121
-0.0287164
-0.0291473
-0.0296059
-0.0300935
-0.0306113
-0.0311604
-0.0317418
-0.0323565
-0.0330055
-0.0336895
-0.0344091
-0.0351648
-0.0359569
-0.0367854
-0.0376501
-0.0385504
-0.0394855
-0.0404541
-0.0414544
-0.0424842
-0.0435405
-0.04462
-0.0457183
-0.0468303
-0.0479501
-0.0490706
-0.0501836
-0.0512799
-0.0523487
-0.0201929
-0.0203144
-0.0204339
-0.020545
-0.0206552
-0.0207665
-0.0208782
-0.02099
-0.0211018
-0.0212137
-0.0213254
-0.021437
-0.0215483
-0.0216592
-0.0217697
-0.0218797
-0.021989
-0.0220977
-0.0222055
-0.0223124
-0.0224184
-0.0225233
-0.0226271
-0.0227297
-0.022831
-0.022931
-0.0230297
-0.023127
-0.0232228
-0.0233173
-0.0234103
-0.0235018
-0.0235921
-0.0236809
-0.0237686
-0.0238551
-0.0239405
-0.0240251
-0.0241089
-0.0241923
-0.0242753
-0.0243583
-0.0244416
-0.0245254
-0.0246103
-0.0246965
-0.0247845
-0.0248748
-0.024968
-0.0250645
-0.025165
-0.0252702
-0.0253808
-0.0254975
-0.025621
-0.0257523
-0.0258922
-0.0260417
-0.0262016
-0.0263731
-0.0265571
-0.0267548
-0.0269673
-0.0271957
-0.0274413
-0.0277053
-0.027989
-0.0282935
-0.0286204
-0.0289707
-0.029346
-0.0297474
-0.0301764
-0.0306342
-0.0311222
-0.0316415
-0.0321934
-0.032779
-0.0333993
-0.0340554
-0.0347481
-0.035478
-0.0362458
-0.0370517
-0.0378959
-0.0387782
-0.039698
-0.0406547
-0.0416469
-0.0426729
-0.0437305
-0.0448169
-0.0459285
-0.0470611
-0.0482095
-0.0493678
-0.0505289
-0.0516846
-0.0528254
-0.0539404
-0.0214738
-0.0215976
-0.0217193
-0.0218324
-0.0219446
-0.0220579
-0.0221716
-0.0222854
-0.0223992
-0.0225129
-0.0226265
-0.0227399
-0.0228529
-0.0229654
-0.0230775
-0.0231888
-0.0232994
-0.0234092
-0.023518
-0.0236258
-0.0237323
-0.0238377
-0.0239417
-0.0240442
-0.0241453
-0.0242447
-0.0243425
-0.0244387
-0.024533
-0.0246257
-0.0247165
-0.0248056
-0.0248929
-0.0249785
-0.0250624
-0.0251448
-0.0252258
-0.0253054
-0.0253839
-0.0254614
-0.0255382
-0.0256146
-0.0256908
-0.0257672
-0.0258441
-0.0259221
-0.0260014
-0.0260827
-0.0261665
-0.0262534
-0.026344
-0.026439
-0.0265392
-0.0266453
-0.0267581
-0.0268786
-0.0270076
-0.0271462
-0.0272953
-0.0274561
-0.0276296
-0.027817
-0.0280194
-0.0282382
-0.0284745
-0.0287297
-0.0290051
-0.0293021
-0.029622
-0.0299662
-0.0303361
-0.0307332
-0.0311588
-0.0316142
-0.032101
-0.0326203
-0.0331735
-0.0337617
-0.0343861
-0.0350478
-0.0357477
-0.0364864
-0.0372647
-0.0380829
-0.0389412
-0.0398395
-0.0407773
-0.0417539
-0.042768
-0.0438181
-0.0449018
-0.0460164
-0.0471584
-0.0483235
-0.0495065
-0.0507015
-0.0519012
-0.0530975
-0.0542807
-0.0554399
-0.0227515
-0.022878
-0.0230024
-0.023118
-0.0232327
-0.0233484
-0.0234645
-0.0235807
-0.0236969
-0.0238129
-0.0239288
-0.0240443
-0.0241594
-0.0242739
-0.0243877
-0.0245008
-0.024613
-0.0247241
-0.0248341
-0.0249428
-0.0250502
-0.025156
-0.0252603
-0.0253628
-0.0254635
-0.0255624
-0.0256593
-0.0257541
-0.0258468
-0.0259374
-0.0260258
-0.026112
-0.026196
-0.0262778
-0.0263576
-0.0264353
-0.0265111
-0.0265852
-0.0266575
-0.0267285
-0.0267982
-0.026867
-0.0269352
-0.0270031
-0.0270711
-0.0271396
-0.0272092
-0.0272803
-0.0273535
-0.0274294
-0.0275087
-0.0275922
-0.0276805
-0.0277746
-0.0278752
-0.0279834
-0.0281
-0.0282262
-0.028363
-0.0285114
-0.0286728
-0.0288483
-0.0290391
-0.0292466
-0.0294721
-0.0297169
-0.0299825
-0.0302703
-0.0305817
-0.0309182
-0.0312812
-0.0316723
-0.032093
-0.0325446
-0.0330286
-0.0335464
-0.0340994
-0.0346888
-0.0353158
-0.0359816
-0.0366871
-0.0374332
-0.0382205
-0.0390495
-0.0399203
-0.0408331
-0.0417873
-0.0427823
-0.0438168
-0.0448892
-0.0459974
-0.0471385
-0.0483091
-0.0495048
-0.0507206
-0.0519503
-0.0531867
-0.0544215
-0.055645
-0.0568462
-0.0240258
-0.0241557
-0.0242833
-0.0244019
-0.0245195
-0.0246382
-0.0247572
-0.0248763
-0.0249953
-0.025114
-0.0252325
-0.0253506
-0.0254681
-0.0255849
-0.0257009
-0.025816
-0.02593
-0.0260427
-0.0261541
-0.026264
-0.0263723
-0.0264787
-0.0265833
-0.0266859
-0.0267863
-0.0268845
-0.0269803
-0.0270736
-0.0271645
-0.0272527
-0.0273383
-0.0274213
-0.0275016
-0.0275792
-0.0276542
-0.0277267
-0.0277967
-0.0278644
-0.0279299
-0.0279934
-0.0280552
-0.0281155
-0.0281746
-0.0282329
-0.0282908
-0.0283488
-0.0284073
-0.0284669
-0.0285281
-0.0285918
-0.0286584
-0.0287289
-0.0288039
-0.0288844
-0.0289714
-0.0290657
-0.0291684
-0.0292806
-0.0294034
-0.029538
-0.0296856
-0.0298476
-0.0300252
-0.0302198
-0.0304328
-0.0306657
-0.0309198
-0.0311969
-0.0314982
-0.0318255
-0.0321801
-0.0325638
-0.032978
-0.0334242
-0.033904
-0.0344189
-0.0349702
-0.0355593
-0.0361875
-0.0368559
-0.0375657
-0.0383176
-0.0391125
-0.0399508
-0.0408328
-0.0417585
-0.0427276
-0.0437394
-0.0447927
-0.0458859
-0.0470169
-0.0481829
-0.0493803
-0.0506049
-0.0518515
-0.0531139
-0.054385
-0.0556564
-0.0569181
-0.0581591
-0.0252968
-0.0254307
-0.0255621
-0.0256842
-0.0258054
-0.0259275
-0.0260499
-0.0261724
-0.0262946
-0.0264166
-0.0265382
-0.0266592
-0.0267795
-0.026899
-0.0270176
-0.027135
-0.027251
-0.0273657
-0.0274787
-0.0275899
-0.0276993
-0.0278065
-0.0279115
-0.0280141
-0.0281141
-0.0282115
-0.0283061
-0.0283978
-0.0284866
-0.0285722
-0.0286547
-0.028734
-0.0288101
-0.0288829
-0.0289526
-0.0290191
-0.0290826
-0.0291431
-0.0292009
-0.0292561
-0.0293089
-0.0293597
-0.0294087
-0.0294563
-0.029503
-0.0295491
-0.0295953
-0.029642
-0.02969
-0.0297399
-0.0297924
-0.0298484
-0.0299086
-0.0299741
-0.0300457
-0.0301246
-0.0302118
-0.0303084
-0.0304156
-0.0305347
-0.030667
-0.0308138
-0.0309766
-0.0311567
-0.0313556
-0.031575
-0.0318162
-0.0320809
-0.0323706
-0.0326871
-0.0330319
-0.0334066
-0.0338129
-0.0342523
-0.0347265
-0.0352369
-0.0357852
-0.0363726
-0.0370005
-0.0376703
-0.0383829
-0.0391393
-0.0399403
-0.0407866
-0.0416783
-0.0426156
-0.0435981
-0.0446252
-0.0456958
-0.0468082
-0.0479604
-0.0491495
-0.0503721
-0.0516237
-0.0528993
-0.0541927
-0.0554966
-0.0568024
-0.0581002
-0.0593789
-0.0265647
-0.0267032
-0.0268392
-0.0269654
-0.0270906
-0.0272167
-0.0273432
-0.0274695
-0.0275955
-0.0277212
-0.0278463
-0.0279708
-0.0280944
-0.028217
-0.0283384
-0.0284585
-0.028577
-0.0286938
-0.0288086
-0.0289214
-0.029032
-0.02914
-0.0292455
-0.0293481
-0.0294477
-0.0295443
-0.0296375
-0.0297274
-0.0298137
-0.0298964
-0.0299754
-0.0300505
-0.0301219
-0.0301894
-0.0302531
-0.030313
-0.0303691
-0.0304217
-0.0304708
-0.0305167
-0.0305596
-0.0305997
-0.0306374
-0.0306732
-0.0307073
-0.0307403
-0.0307728
-0.0308053
-0.0308385
-0.0308732
-0.0309101
-0.03095
-0.0309939
-0.0310427
-0.0310975
-0.0311593
-0.0312293
-0.0313087
-0.0313987
-0.0315007
-0.031616
-0.0317461
-0.0318924
-0.0320564
-0.0322397
-0.0324439
-0.0326706
-0.0329214
-0.0331981
-0.0335023
-0.0338357
-0.0342
-0.034597
-0.0350282
-0.0354954
-0.0360001
-0.0365439
-0.0371283
-0.0377547
-0.0384244
-0.0391385
-0.0398981
-0.040704
-0.0415569
-0.042457
-0.0434044
-0.044399
-0.04544
-0.0465263
-0.0476565
-0.0488283
-0.050039
-0.051285
-0.0525621
-0.0538649
-0.0551873
-0.056522
-0.0578602
-0.0591921
-0.0605062
-0.02783
-0.0279739
-0.028115
-0.028246
-0.0283758
-0.0285066
-0.0286376
-0.0287684
-0.0288988
-0.0290287
-0.0291579
-0.0292863
-0.0294136
-0.0295397
-0.0296644
-0.0297875
-0.0299087
-0.0300279
-0.0301449
-0.0302594
-0.0303713
-0.0304803
-0.0305862
-0.0306889
-0.0307881
-0.0308836
-0.0309754
-0.0310631
-0.0311467
-0.0312261
-0.0313011
-0.0313717
-0.0314377
-0.0314992
-0.0315562
-0.0316087
-0.0316567
-0.0317004
-0.0317399
-0.0317755
-0.0318072
-0.0318356
-0.0318608
-0.0318834
-0.0319036
-0.0319222
-0.0319395
-0.0319564
-0.0319734
-0.0319913
-0.032011
-0.0320333
-0.0320592
-0.0320897
-0.032126
-0.0321691
-0.0322202
-0.0322807
-0.0323519
-0.0324351
-0.0325318
-0.0326435
-0.0327717
-0.0329181
-0.0330842
-0.0332717
-0.0334823
-0.0337179
-0.03398
-0.0342705
-0.0345911
-0.0349437
-0.0353299
-0.0357516
-0.0362104
-0.0367081
-0.0372462
-0.0378263
-0.0384499
-0.0391183
-0.0398327
-0.0405943
-0.0414038
-0.0422619
-0.0431691
-0.0441255
-0.0451307
-0.0461843
-0.0472851
-0.0484315
-0.0496215
-0.0508522
-0.0521201
-0.0534209
-0.0547492
-0.0560988
-0.0574623
-0.0588311
-0.0601949
-0.0615423
-0.0290931
-0.0292432
-0.0293902
-0.0295266
-0.0296618
-0.0297979
-0.029934
-0.0300699
-0.0302053
-0.0303399
-0.0304738
-0.0306066
-0.0307381
-0.0308682
-0.0309966
-0.031123
-0.0312473
-0.0313693
-0.0314886
-0.0316051
-0.0317184
-0.0318285
-0.0319349
-0.0320376
-0.0321362
-0.0322306
-0.0323206
-0.032406
-0.0324866
-0.0325622
-0.0326327
-0.0326981
-0.0327582
-0.0328131
-0.0328626
-0.0329068
-0.0329458
-0.0329796
-0.0330085
-0.0330326
-0.0330521
-0.0330674
-0.0330789
-0.0330869
-0.0330919
-0.0330945
-0.0330953
-0.0330949
-0.0330941
-0.0330937
-0.0330946
-0.0330976
-0.0331039
-0.0331145
-0.0331305
-0.0331532
-0.0331839
-0.0332238
-0.0332744
-0.0333372
-0.0334137
-0.0335054
-0.0336139
-0.033741
-0.0338884
-0.0340578
-0.0342509
-0.0344696
-0.0347157
-0.0349911
-0.0352976
-0.0356371
-0.0360113
-0.0364222
-0.0368715
-0.0373608
-0.0378921
-0.0384667
-0.0390863
-0.0397523
-0.0404658
-0.0412281
-0.0420401
-0.0429024
-0.0438155
-0.0447795
-0.0457942
-0.046859
-0.0479729
-0.0491343
-0.050341
-0.0515903
-0.0528785
-0.0542014
-0.0555535
-0.0569286
-0.0583192
-0.0597164
-0.0611102
-0.0624888
-0.0303549
-0.0305119
-0.0306657
-0.0308083
-0.0309495
-0.0310915
-0.0312336
-0.0313752
-0.0315161
-0.0316562
-0.0317952
-0.031933
-0.0320692
-0.0322037
-0.0323362
-0.0324665
-0.0325942
-0.0327192
-0.0328411
-0.0329596
-0.0330746
-0.0331858
-0.0332928
-0.0333954
-0.0334934
-0.0335865
-0.0336745
-0.0337571
-0.0338343
-0.0339057
-0.0339713
-0.0340309
-0.0340844
-0.0341317
-0.0341729
-0.034208
-0.0342369
-0.0342598
-0.0342769
-0.0342884
-0.0342945
-0.0342955
-0.0342918
-0.0342838
-0.0342721
-0.0342573
-0.0342399
-0.0342207
-0.0342005
-0.0341801
-0.0341605
-0.0341426
-0.0341276
-0.0341165
-0.0341106
-0.0341112
-0.0341197
-0.0341373
-0.0341658
-0.0342065
-0.034261
-0.0343311
-0.0344185
-0.0345248
-0.0346519
-0.0348016
-0.0349758
-0.0351763
-0.0354051
-0.035664
-0.0359551
-0.0362802
-0.0366412
-0.0370401
-0.0374786
-0.0379586
-0.0384817
-0.0390498
-0.0396643
-0.0403267
-0.0410384
-0.0418004
-0.0426137
-0.0434791
-0.0443969
-0.0453675
-0.0463905
-0.0474654
-0.0485912
-0.0497662
-0.0509883
-0.0522547
-0.0535619
-0.0549053
-0.0562796
-0.0576785
-0.0590943
-0.0605182
-0.0619399
-0.0633476
-0.0316163
-0.0317812
-0.0319425
-0.0320921
-0.0322401
-0.0323888
-0.0325375
-0.0326855
-0.0328326
-0.0329787
-0.0331236
-0.0332669
-0.0334084
-0.0335478
-0.0336849
-0.0338193
-0.0339508
-0.034079
-0.0342038
-0.0343247
-0.0344414
-0.0345537
-0.0346613
-0.0347638
-0.0348609
-0.0349525
-0.0350382
-0.0351178
-0.035191
-0.0352578
-0.0353177
-0.0353709
-0.035417
-0.0354561
-0.0354881
-0.035513
-0.0355308
-0.0355417
-0.0355458
-0.0355434
-0.0355346
-0.0355199
-0.0354996
-0.0354742
-0.0354443
-0.0354104
-0.0353732
-0.0353336
-0.0352923
-0.0352502
-0.0352084
-0.0351678
-0.0351297
-0.0350952
-0.0350657
-0.0350425
-0.035027
-0.0350208
-0.0350253
-0.0350423
-0.0350734
-0.0351203
-0.0351849
-0.0352689
-0.0353742
-0.0355029
-0.0356567
-0.0358377
-0.0360478
-0.0362891
-0.0365635
-0.036873
-0.0372197
-0.0376054
-0.038032
-0.0385015
-0.0390157
-0.0395761
-0.0401846
-0.0408424
-0.0415511
-0.0423118
-0.0431255
-0.0439929
-0.0449146
-0.0458906
-0.0469209
-0.0480047
-0.0491412
-0.0503287
-0.051565
-0.0528472
-0.0541719
-0.0555344
-0.0569294
-0.0583504
-0.0597898
-0.0612385
-0.0626862
-0.0641209
-0.0328782
-0.033052
-0.0332219
-0.0333792
-0.0335348
-0.033691
-0.033847
-0.0340022
-0.0341563
-0.0343092
-0.0344604
-0.0346099
-0.0347572
-0.034902
-0.0350441
-0.0351831
-0.0353188
-0.0354506
-0.0355784
-0.0357018
-0.0358204
-0.0359339
-0.036042
-0.0361443
-0.0362404
-0.0363302
-0.0364133
-0.0364894
-0.0365583
-0.0366197
-0.0366734
-0.0367193
-0.0367572
-0.0367871