/*--------------------------------*- C++ -*----------------------------------*\
| =========                 |                                                 |
| \\      /  F ield         | OpenFOAM: The Open Source CFD Toolbox           |
|  \\    /   O peration     | Version:  2406                                  |
|   \\  /    A nd           | Website:  www.openfoam.com                      |
|    \\/     M anipulation  |                                                 |
\*---------------------------------------------------------------------------*/
FoamFile
{
    version     2.0;
    format      ascii;
    arch        "LSB;label=32;scalar=64";
    class       surfaceScalarField;
    location    "5.98";
    object      phi;
}
// * * * * * * * * * * * * * * * * * * * * * * * * * * * * * * * * * * * * * //

dimensions      [0 3 -1 0 0 0 0];

oriented        oriented;

internalField   nonuniform List<scalar> 
79600
(
-5.67525e-09
1.80324e-07
-1.74649e-07
-2.28998e-08
5.47936e-07
-5.30711e-07
-5.20607e-08
9.28495e-07
-8.99334e-07
-9.35499e-08
1.32222e-06
-1.28073e-06
-1.47764e-07
1.7293e-06
-1.67509e-06
-2.15104e-07
2.14995e-06
-2.08261e-06
-2.95973e-07
2.58435e-06
-2.50348e-06
-3.90781e-07
3.03269e-06
-2.93788e-06
-4.99938e-07
3.49513e-06
-3.38597e-06
-6.23856e-07
3.97183e-06
-3.84791e-06
-7.62953e-07
4.46294e-06
-4.32384e-06
-9.17643e-07
4.9686e-06
-4.81391e-06
-1.08835e-06
5.48894e-06
-5.31824e-06
-1.27548e-06
6.02407e-06
-5.83694e-06
-1.47946e-06
6.5741e-06
-6.37011e-06
-1.70072e-06
7.13909e-06
-6.91784e-06
-1.93965e-06
7.71914e-06
-7.48021e-06
-2.19669e-06
8.31429e-06
-8.05726e-06
-2.47224e-06
8.92459e-06
-8.64904e-06
-2.76671e-06
9.55005e-06
-9.25557e-06
-3.08052e-06
1.01907e-05
-9.87687e-06
-3.41406e-06
1.08464e-05
-1.05129e-05
-3.76772e-06
1.15173e-05
-1.11637e-05
-4.14191e-06
1.22033e-05
-1.18291e-05
-4.537e-06
1.29042e-05
-1.25091e-05
-4.95337e-06
1.362e-05
-1.32036e-05
-5.3914e-06
1.43506e-05
-1.39126e-05
-5.85143e-06
1.50958e-05
-1.46357e-05
-6.33382e-06
1.58554e-05
-1.5373e-05
-6.83892e-06
1.66292e-05
-1.61241e-05
-7.36704e-06
1.74171e-05
-1.6889e-05
-7.91851e-06
1.82187e-05
-1.76673e-05
-8.49362e-06
1.90339e-05
-1.84588e-05
-9.09268e-06
1.98622e-05
-1.92631e-05
-9.71595e-06
2.07034e-05
-2.00801e-05
-1.03637e-05
2.15571e-05
-2.09093e-05
-1.10362e-05
2.24229e-05
-2.17504e-05
-1.17336e-05
2.33004e-05
-2.2603e-05
-1.24562e-05
2.41891e-05
-2.34665e-05
-1.32042e-05
2.50886e-05
-2.43407e-05
-1.39777e-05
2.59984e-05
-2.52249e-05
-1.47769e-05
2.69178e-05
-2.61186e-05
-1.56019e-05
2.78464e-05
-2.70214e-05
-1.6453e-05
2.87836e-05
-2.79325e-05
-1.73301e-05
2.97286e-05
-2.88514e-05
-1.82334e-05
3.06808e-05
-2.97775e-05
-1.9163e-05
3.16395e-05
-3.07099e-05
-2.01189e-05
3.2604e-05
-3.16481e-05
-2.11011e-05
3.35734e-05
-3.25912e-05
-2.21097e-05
3.45469e-05
-3.35383e-05
-2.31446e-05
3.55238e-05
-3.44888e-05
-2.4206e-05
3.65029e-05
-3.54416e-05
-2.52936e-05
3.74835e-05
-3.63958e-05
-2.64076e-05
3.84645e-05
-3.73505e-05
-2.75478e-05
3.94448e-05
-3.83045e-05
-2.87142e-05
4.04233e-05
-3.92569e-05
-2.99067e-05
4.13989e-05
-4.02063e-05
-3.11252e-05
4.23702e-05
-4.11517e-05
-3.23697e-05
4.33361e-05
-4.20917e-05
-3.364e-05
4.42951e-05
-4.30248e-05
-3.49359e-05
4.52457e-05
-4.39497e-05
-3.62575e-05
4.61864e-05
-4.48648e-05
-3.76046e-05
4.71155e-05
-4.57684e-05
-3.8977e-05
4.80312e-05
-4.66588e-05
-4.03747e-05
4.89316e-05
-4.75339e-05
-4.17975e-05
4.98147e-05
-4.83919e-05
-4.32453e-05
5.06783e-05
-4.92304e-05
-4.4718e-05
5.15199e-05
-5.00472e-05
-4.62155e-05
5.23371e-05
-5.08396e-05
-4.77377e-05
5.3127e-05
-5.16049e-05
-4.92844e-05
5.38868e-05
-5.23401e-05
-5.08556e-05
5.46131e-05
-5.30419e-05
-5.24512e-05
5.53025e-05
-5.37069e-05
-5.4071e-05
5.5951e-05
-5.43312e-05
-5.5715e-05
5.65547e-05
-5.49107e-05
-5.73831e-05
5.71089e-05
-5.54409e-05
-5.90751e-05
5.76089e-05
-5.59168e-05
-6.0791e-05
5.80491e-05
-5.63333e-05
-6.25306e-05
5.84239e-05
-5.66844e-05
-6.42937e-05
5.8727e-05
-5.69639e-05
-6.60802e-05
5.89514e-05
-5.71649e-05
-6.78898e-05
5.90898e-05
-5.72802e-05
-6.97223e-05
5.9134e-05
-5.73016e-05
-7.15772e-05
5.90753e-05
-5.72204e-05
-7.34542e-05
5.89042e-05
-5.70271e-05
-7.53528e-05
5.86102e-05
-5.67117e-05
-7.72722e-05
5.81824e-05
-5.6263e-05
-7.92116e-05
5.76087e-05
-5.56693e-05
-8.11701e-05
5.6876e-05
-5.49175e-05
-8.31464e-05
5.59705e-05
-5.39942e-05
-8.5139e-05
5.4877e-05
-5.28844e-05
-8.71462e-05
5.35795e-05
-5.15723e-05
-8.91658e-05
5.20608e-05
-5.00412e-05
-9.11951e-05
5.03024e-05
-4.8273e-05
-9.32312e-05
4.82848e-05
-4.62488e-05
-9.52703e-05
4.59873e-05
-4.39482e-05
-9.73081e-05
4.3388e-05
-4.13502e-05
-9.93394e-05
4.04637e-05
-3.84324e-05
-0.000101358
3.71904e-05
-3.51717e-05
3.35429e-05
-0.000103357
-3.1544e-05
-5.5462e-09
1.8587e-07
-2.23823e-08
5.64772e-07
-5.08886e-08
9.57002e-07
-9.14501e-08
1.36278e-06
-1.44457e-07
1.78231e-06
-2.10303e-07
2.2158e-06
-2.89385e-07
2.66344e-06
-3.82106e-07
3.12541e-06
-4.88869e-07
3.60189e-06
-6.10081e-07
4.09304e-06
-7.46149e-07
4.59901e-06
-8.97484e-07
5.11994e-06
-1.0645e-06
5.65596e-06
-1.2476e-06
6.20718e-06
-1.4472e-06
6.7737e-06
-1.66371e-06
7.35561e-06
-1.89754e-06
7.95297e-06
-2.1491e-06
8.56585e-06
-2.41878e-06
9.19428e-06
-2.707e-06
9.83827e-06
-3.01415e-06
1.04978e-05
-3.34062e-06
1.11729e-05
-3.6868e-06
1.18635e-05
-4.05306e-06
1.25696e-05
-4.43979e-06
1.32909e-05
-4.84734e-06
1.40276e-05
-5.27608e-06
1.47793e-05
-5.72634e-06
1.5546e-05
-6.19848e-06
1.63275e-05
-6.69281e-06
1.71236e-05
-7.20965e-06
1.79339e-05
-7.74929e-06
1.87584e-05
-8.31204e-06
1.95966e-05
-8.89815e-06
2.04483e-05
-9.5079e-06
2.13131e-05
-1.01415e-05
2.21907e-05
-1.07992e-05
2.30806e-05
-1.14813e-05
2.39824e-05
-1.21878e-05
2.48957e-05
-1.29191e-05
2.58198e-05
-1.36751e-05
2.67544e-05
-1.44562e-05
2.76989e-05
-1.52624e-05
2.86526e-05
-1.60938e-05
2.96149e-05
-1.69504e-05
3.05852e-05
-1.78325e-05
3.15628e-05
-1.87399e-05
3.2547e-05
-1.96728e-05
3.35369e-05
-2.06312e-05
3.45317e-05
-2.1615e-05
3.55307e-05
-2.26242e-05
3.6533e-05
-2.36588e-05
3.75376e-05
-2.47188e-05
3.85435e-05
-2.58041e-05
3.95497e-05
-2.69145e-05
4.05552e-05
-2.80501e-05
4.15588e-05
-2.92106e-05
4.25594e-05
-3.03961e-05
4.35557e-05
-3.16063e-05
4.45463e-05
-3.28412e-05
4.553e-05
-3.41006e-05
4.65051e-05
-3.53844e-05
4.74702e-05
-3.66925e-05
4.84236e-05
-3.80247e-05
4.93634e-05
-3.93809e-05
5.02878e-05
-4.0761e-05
5.11948e-05
-4.21648e-05
5.20821e-05
-4.35923e-05
5.29474e-05
-4.50433e-05
5.37881e-05
-4.65177e-05
5.46014e-05
-4.80154e-05
5.53845e-05
-4.95364e-05
5.61341e-05
-5.10805e-05
5.68466e-05
-5.26478e-05
5.75183e-05
-5.42381e-05
5.8145e-05
-5.58515e-05
5.87223e-05
-5.74878e-05
5.92452e-05
-5.9147e-05
5.97083e-05
-6.08291e-05
6.0106e-05
-6.2534e-05
6.04319e-05
-6.42616e-05
6.06791e-05
-6.60119e-05
6.08401e-05
-6.77847e-05
6.09068e-05
-6.95799e-05
6.08704e-05
-7.13971e-05
6.07214e-05
-7.32361e-05
6.04492e-05
-7.50964e-05
6.00428e-05
-7.69775e-05
5.94898e-05
-7.88788e-05
5.87773e-05
-8.07993e-05
5.78909e-05
-8.27379e-05
5.68156e-05
-8.46932e-05
5.55349e-05
-8.66636e-05
5.40312e-05
-8.8647e-05
5.22858e-05
-9.06408e-05
5.02787e-05
-9.2642e-05
4.79885e-05
-9.46469e-05
4.53929e-05
-9.66511e-05
4.24679e-05
-9.86492e-05
3.91886e-05
3.55288e-05
-0.000100635
-5.4178e-09
1.91288e-07
-2.18664e-08
5.81221e-07
-4.97196e-08
9.84855e-07
-8.93557e-08
1.40241e-06
-1.41158e-07
1.83411e-06
-2.05512e-07
2.28015e-06
-2.82811e-07
2.74073e-06
-3.73446e-07
3.21605e-06
-4.77817e-07
3.70626e-06
-5.96321e-07
4.21154e-06
-7.2936e-07
4.73205e-06
-8.77337e-07
5.26791e-06
-1.04065e-06
5.81927e-06
-1.21972e-06
6.38624e-06
-1.41493e-06
6.96891e-06
-1.62668e-06
7.56736e-06
-1.85539e-06
8.18168e-06
-2.10145e-06
8.81191e-06
-2.36525e-06
9.45808e-06
-2.64719e-06
1.01202e-05
-2.94765e-06
1.07983e-05
-3.26701e-06
1.14923e-05
-3.60565e-06
1.22022e-05
-3.96394e-06
1.29278e-05
-4.34224e-06
1.36692e-05
-4.7409e-06
1.44262e-05
-5.16027e-06
1.51987e-05
-5.60068e-06
1.59864e-05
-6.06246e-06
1.67893e-05
-6.5459e-06
1.7607e-05
-7.05132e-06
1.84394e-05
-7.579e-06
1.92861e-05
-8.1292e-06
2.01468e-05
-8.70219e-06
2.10213e-05
-9.2982e-06
2.19092e-05
-9.91747e-06
2.281e-05
-1.05602e-05
2.37233e-05
-1.12266e-05
2.46488e-05
-1.19167e-05
2.55859e-05
-1.26309e-05
2.6534e-05
-1.33692e-05
2.74927e-05
-1.41317e-05
2.84614e-05
-1.49185e-05
2.94394e-05
-1.57298e-05
3.04262e-05
-1.65654e-05
3.14209e-05
-1.74256e-05
3.2423e-05
-1.83104e-05
3.34317e-05
-1.92196e-05
3.44461e-05
-2.01534e-05
3.54655e-05
-2.11116e-05
3.6489e-05
-2.20943e-05
3.75157e-05
-2.31013e-05
3.85446e-05
-2.41326e-05
3.95748e-05
-2.51881e-05
4.06052e-05
-2.62677e-05
4.16348e-05
-2.73713e-05
4.26624e-05
-2.84986e-05
4.36868e-05
-2.96497e-05
4.47068e-05
-3.08244e-05
4.5721e-05
-3.20224e-05
4.6728e-05
-3.32437e-05
4.77264e-05
-3.44881e-05
4.87146e-05
-3.57554e-05
4.96909e-05
-3.70455e-05
5.06535e-05
-3.83583e-05
5.16006e-05
-3.96935e-05
5.25301e-05
-4.10512e-05
5.34397e-05
-4.24311e-05
5.43273e-05
-4.38331e-05
5.51901e-05
-4.52572e-05
5.60255e-05
-4.67033e-05
5.68306e-05
-4.81713e-05
5.76021e-05
-4.96611e-05
5.83364e-05
-5.11727e-05
5.90299e-05
-5.27061e-05
5.96785e-05
-5.42613e-05
6.02775e-05
-5.58384e-05
6.08222e-05
-5.74372e-05
6.13072e-05
-5.90579e-05
6.17267e-05
-6.07005e-05
6.20745e-05
-6.2365e-05
6.23436e-05
-6.40515e-05
6.25266e-05
-6.57599e-05
6.26153e-05
-6.74903e-05
6.26008e-05
-6.92426e-05
6.24736e-05
-7.10166e-05
6.22233e-05
-7.28122e-05
6.18384e-05
-7.46291e-05
6.13067e-05
-7.64669e-05
6.06151e-05
-7.83251e-05
5.97491e-05
-8.02028e-05
5.86934e-05
-8.20992e-05
5.74312e-05
-8.4013e-05
5.5945e-05
-8.59426e-05
5.42154e-05
-8.7886e-05
5.22221e-05
-8.98409e-05
4.99434e-05
-9.1804e-05
4.73561e-05
-9.37719e-05
4.44358e-05
-9.574e-05
4.11567e-05
3.74918e-05
-9.7703e-05
-5.28998e-09
1.96578e-07
-2.13533e-08
5.97284e-07
-4.85576e-08
1.01206e-06
-8.72748e-08
1.44113e-06
-1.37881e-07
1.88472e-06
-2.00758e-07
2.34303e-06
-2.76288e-07
2.81626e-06
-3.64858e-07
3.30462e-06
-4.66859e-07
3.80826e-06
-5.82683e-07
4.32737e-06
-7.12722e-07
4.86209e-06
-8.57372e-07
5.41257e-06
-1.01703e-06
5.97893e-06
-1.19209e-06
6.5613e-06
-1.38294e-06
7.15976e-06
-1.58999e-06
7.77441e-06
-1.81361e-06
8.40531e-06
-2.05421e-06
9.05251e-06
-2.31217e-06
9.71603e-06
-2.58786e-06
1.03959e-05
-2.88166e-06
1.10921e-05
-3.19395e-06
1.18046e-05
-3.52509e-06
1.25333e-05
-3.87543e-06
1.32782e-05
-4.24533e-06
1.40391e-05
-4.63511e-06
1.4816e-05
-5.04513e-06
1.56087e-05
-5.47568e-06
1.6417e-05
-5.92708e-06
1.72407e-05
-6.39962e-06
1.80795e-05
-6.89359e-06
1.89333e-05
-7.40925e-06
1.98017e-05
-7.94685e-06
2.06844e-05
-8.50664e-06
2.15811e-05
-9.08883e-06
2.24913e-05
-9.69362e-06
2.34148e-05
-1.03212e-05
2.43509e-05
-1.09717e-05
2.52993e-05
-1.16454e-05
2.62595e-05
-1.23423e-05
2.72309e-05
-1.30625e-05
2.8213e-05
-1.38062e-05
2.92051e-05
-1.45733e-05
3.02066e-05
-1.53641e-05
3.12169e-05
-1.61784e-05
3.22353e-05
-1.70163e-05
3.32609e-05
-1.78778e-05
3.42932e-05
-1.87629e-05
3.53312e-05
-1.96715e-05
3.63741e-05
-2.06036e-05
3.7421e-05
-2.1559e-05
3.84711e-05
-2.25377e-05
3.95233e-05
-2.35395e-05
4.05767e-05
-2.45644e-05
4.16301e-05
-2.56122e-05
4.26826e-05
-2.66828e-05
4.37329e-05
-2.77759e-05
4.47799e-05
-2.88915e-05
4.58223e-05
-3.00293e-05
4.68588e-05
-3.11891e-05
4.78879e-05
-3.23709e-05
4.89082e-05
-3.35744e-05
4.99181e-05
-3.47994e-05
5.09159e-05
-3.60458e-05
5.18999e-05
-3.73134e-05
5.28682e-05
-3.8602e-05
5.38187e-05
-3.99115e-05
5.47493e-05
-4.12418e-05
5.56576e-05
-4.25928e-05
5.65411e-05
-4.39643e-05
5.73971e-05
-4.53563e-05
5.82226e-05
-4.67687e-05
5.90145e-05
-4.82015e-05
5.97692e-05
-4.96547e-05
6.04831e-05
-5.11283e-05
6.1152e-05
-5.26223e-05
6.17715e-05
-5.41368e-05
6.23367e-05
-5.56719e-05
6.28423e-05
-5.72276e-05
6.32825e-05
-5.88042e-05
6.36511e-05
-6.04017e-05
6.39411e-05
-6.20203e-05
6.41451e-05
-6.366e-05
6.4255e-05
-6.53211e-05
6.42619e-05
-6.70037e-05
6.41562e-05
-6.87078e-05
6.39274e-05
-7.04335e-05
6.35641e-05
-7.21808e-05
6.3054e-05
-7.39494e-05
6.23837e-05
-7.57392e-05
6.15389e-05
-7.75498e-05
6.0504e-05
-7.93807e-05
5.92621e-05
-8.12309e-05
5.77952e-05
-8.30994e-05
5.60839e-05
-8.49849e-05
5.41075e-05
-8.68853e-05
5.18438e-05
-8.87985e-05
4.92692e-05
-9.07214e-05
4.63586e-05
-9.26503e-05
4.30856e-05
3.94222e-05
-9.45808e-05
-5.16423e-09
2.01742e-07
-2.08487e-08
6.12969e-07
-4.74152e-08
1.03863e-06
-8.52298e-08
1.47894e-06
-1.34663e-07
1.93415e-06
-1.96088e-07
2.40445e-06
-2.69883e-07
2.89006e-06
-3.56427e-07
3.39116e-06
-4.56104e-07
3.90794e-06
-5.69299e-07
4.44056e-06
-6.96396e-07
4.98918e-06
-8.37784e-07
5.55395e-06
-9.9385e-07
6.135e-06
-1.16498e-06
6.73243e-06
-1.35156e-06
7.34634e-06
-1.55398e-06
7.97683e-06
-1.77261e-06
8.62394e-06
-2.00784e-06
9.28774e-06
-2.26005e-06
9.96823e-06
-2.52959e-06
1.06654e-05
-2.81684e-06
1.13793e-05
-3.12216e-06
1.21099e-05
-3.44589e-06
1.2857e-05
-3.78839e-06
1.36207e-05
-4.14998e-06
1.44007e-05
-4.53099e-06
1.5197e-05
-4.93173e-06
1.60094e-05
-5.35252e-06
1.68378e-05
-5.79363e-06
1.76818e-05
-6.25534e-06
1.85413e-05
-6.73792e-06
1.94159e-05
-7.24162e-06
2.03054e-05
-7.76667e-06
2.12095e-05
-8.31327e-06
2.21277e-05
-8.88164e-06
2.30597e-05
-9.47195e-06
2.40051e-05
-1.00844e-05
2.49633e-05
-1.0719e-05
2.5934e-05
-1.13761e-05
2.69165e-05
-1.20556e-05
2.79104e-05
-1.27576e-05
2.8915e-05
-1.34823e-05
2.99297e-05
-1.42296e-05
3.09539e-05
-1.49996e-05
3.19869e-05
-1.57923e-05
3.3028e-05
-1.66077e-05
3.40763e-05
-1.74457e-05
3.51312e-05
-1.83062e-05
3.61917e-05
-1.91892e-05
3.72571e-05
-2.00946e-05
3.83264e-05
-2.10222e-05
3.93987e-05
-2.1972e-05
4.04731e-05
-2.29438e-05
4.15484e-05
-2.39374e-05
4.26237e-05
-2.49526e-05
4.36978e-05
-2.59893e-05
4.47696e-05
-2.70473e-05
4.58379e-05
-2.81264e-05
4.69014e-05
-2.92263e-05
4.79587e-05
-3.03469e-05
4.90085e-05
-3.14879e-05
5.00492e-05
-3.26492e-05
5.10794e-05
-3.38306e-05
5.20972e-05
-3.50318e-05
5.31011e-05
-3.62526e-05
5.4089e-05
-3.7493e-05
5.5059e-05
-3.87527e-05
5.60089e-05
-4.00315e-05
5.69364e-05
-4.13295e-05
5.7839e-05
-4.26464e-05
5.87139e-05
-4.39821e-05
5.95584e-05
-4.53367e-05
6.03691e-05
-4.67102e-05
6.11427e-05
-4.81024e-05
6.18754e-05
-4.95136e-05
6.25632e-05
-5.09436e-05
6.32016e-05
-5.23927e-05
6.37858e-05
-5.3861e-05
6.43106e-05
-5.53486e-05
6.47701e-05
-5.68558e-05
6.51582e-05
-5.83827e-05
6.5468e-05
-5.99297e-05
6.56921e-05
-6.14969e-05
6.58223e-05
-6.30847e-05
6.58497e-05
-6.46933e-05
6.57648e-05
-6.6323e-05
6.55571e-05
-6.79741e-05
6.52151e-05
-6.96467e-05
6.47266e-05
-7.13409e-05
6.4078e-05
-7.30569e-05
6.32549e-05
-7.47946e-05
6.22417e-05
-7.65538e-05
6.10213e-05
-7.83341e-05
5.95755e-05
-8.01349e-05
5.78847e-05
-8.19553e-05
5.59279e-05
-8.3794e-05
5.36825e-05
-8.56493e-05
5.11245e-05
-8.75189e-05
4.82283e-05
-8.94001e-05
4.49667e-05
4.13112e-05
-9.12891e-05
-5.04207e-09
2.06784e-07
-2.03586e-08
6.28285e-07
-4.63058e-08
1.06457e-06
-8.3244e-08
1.51588e-06
-1.31538e-07
1.98244e-06
-1.91554e-07
2.46447e-06
-2.63665e-07
2.96217e-06
-3.48244e-07
3.47574e-06
-4.45666e-07
4.00536e-06
-5.56309e-07
4.5512e-06
-6.80551e-07
5.11343e-06
-8.18773e-07
5.69217e-06
-9.71352e-07
6.28758e-06
-1.13867e-06
6.89974e-06
-1.3211e-06
7.52877e-06
-1.51902e-06
8.17475e-06
-1.73279e-06
8.83772e-06
-1.9628e-06
9.51774e-06
-2.2094e-06
1.02148e-05
-2.47296e-06
1.0929e-05
-2.75382e-06
1.16602e-05
-3.05233e-06
1.24084e-05
-3.36883e-06
1.31735e-05
-3.70365e-06
1.39555e-05
-4.0571e-06
1.47542e-05
-4.42951e-06
1.55694e-05
-4.82116e-06
1.64011e-05
-5.23234e-06
1.7249e-05
-5.66333e-06
1.81128e-05
-6.11437e-06
1.89923e-05
-6.58572e-06
1.98873e-05
-7.07761e-06
2.07973e-05
-7.59023e-06
2.17221e-05
-8.12379e-06
2.26613e-05
-8.67845e-06
2.36144e-05
-9.25438e-06
2.4581e-05
-9.85171e-06
2.55607e-05
-1.04706e-05
2.65528e-05
-1.1111e-05
2.7557e-05
-1.17732e-05
2.85725e-05
-1.2457e-05
2.95989e-05
-1.31627e-05
3.06354e-05
-1.38901e-05
3.16814e-05
-1.46393e-05
3.27361e-05
-1.54102e-05
3.37989e-05
-1.62028e-05
3.48689e-05
-1.70171e-05
3.59454e-05
-1.78528e-05
3.70274e-05
-1.87099e-05
3.81142e-05
-1.95883e-05
3.92048e-05
-2.04877e-05
4.02982e-05
-2.14081e-05
4.13935e-05
-2.23493e-05
4.24896e-05
-2.3311e-05
4.35854e-05
-2.42931e-05
4.46799e-05
-2.52953e-05
4.57718e-05
-2.63174e-05
4.686e-05
-2.73592e-05
4.79431e-05
-2.84204e-05
4.90199e-05
-2.95008e-05
5.00889e-05
-3.06001e-05
5.11485e-05
-3.17181e-05
5.21974e-05
-3.28546e-05
5.32337e-05
-3.40094e-05
5.42559e-05
-3.51822e-05
5.52618e-05
-3.63728e-05
5.62497e-05
-3.75811e-05
5.72173e-05
-3.8807e-05
5.81623e-05
-4.00502e-05
5.90822e-05
-4.13107e-05
5.99744e-05
-4.25883e-05
6.0836e-05
-4.38832e-05
6.16639e-05
-4.51951e-05
6.24546e-05
-4.65242e-05
6.32045e-05
-4.78706e-05
6.39095e-05
-4.92342e-05
6.45652e-05
-5.06153e-05
6.51669e-05
-5.20141e-05
6.57093e-05
-5.34308e-05
6.61868e-05
-5.48656e-05
6.6593e-05
-5.63188e-05
6.69213e-05
-5.77909e-05
6.71641e-05
-5.92821e-05
6.73135e-05
-6.07929e-05
6.73605e-05
-6.23238e-05
6.72957e-05
-6.38751e-05
6.71084e-05
-6.54472e-05
6.67873e-05
-6.70407e-05
6.632e-05
-6.86559e-05
6.56932e-05
-7.02932e-05
6.48922e-05
-7.19528e-05
6.39012e-05
-7.36348e-05
6.27033e-05
-7.53394e-05
6.12801e-05
-7.70663e-05
5.96116e-05
-7.88152e-05
5.76768e-05
-8.05853e-05
5.54526e-05
-8.23755e-05
5.29147e-05
-8.41844e-05
5.00371e-05
-8.60097e-05
4.67921e-05
4.31503e-05
-8.78488e-05
-4.92495e-09
2.11709e-07
-1.98887e-08
6.43249e-07
-4.52422e-08
1.08993e-06
-8.13404e-08
1.55198e-06
-1.28542e-07
2.02964e-06
-1.87208e-07
2.52314e-06
-2.57704e-07
3.03267e-06
-3.40398e-07
3.55843e-06
-4.35657e-07
4.10062e-06
-5.43852e-07
4.6594e-06
-6.65356e-07
5.23493e-06
-8.00537e-07
5.82736e-06
-9.49769e-07
6.43681e-06
-1.11342e-06
7.06339e-06
-1.29186e-06
7.70721e-06
-1.48545e-06
8.36834e-06
-1.69455e-06
9.04683e-06
-1.91953e-06
9.74272e-06
-2.16073e-06
1.0456e-05
-2.41851e-06
1.11868e-05
-2.69319e-06
1.19349e-05
-2.98512e-06
1.27003e-05
-3.29462e-06
1.3483e-05
-3.622e-06
1.42829e-05
-3.96756e-06
1.50998e-05
-4.33161e-06
1.59335e-05
-4.71441e-06
1.67839e-05
-5.11624e-06
1.76508e-05
-5.53735e-06
1.85339e-05
-5.97797e-06
1.94329e-05
-6.43834e-06
2.03476e-05
-6.91864e-06
2.12776e-05
-7.41907e-06
2.22225e-05
-7.93979e-06
2.3182e-05
-8.48096e-06
2.41555e-05
-9.04271e-06
2.51427e-05
-9.62513e-06
2.61431e-05
-1.02283e-05
2.7156e-05
-1.08524e-05
2.8181e-05
-1.14973e-05
2.92174e-05
-1.21631e-05
3.02647e-05
-1.28498e-05
3.13221e-05
-1.35573e-05
3.23889e-05
-1.42857e-05
3.34645e-05
-1.50349e-05
3.4548e-05
-1.58047e-05
3.56387e-05
-1.6595e-05
3.67357e-05
-1.74058e-05
3.78382e-05
-1.82369e-05
3.89453e-05
-1.9088e-05
4.00559e-05
-1.99591e-05
4.11693e-05
-2.08498e-05
4.22842e-05
-2.176e-05
4.33998e-05
-2.26895e-05
4.45149e-05
-2.36379e-05
4.56283e-05
-2.46051e-05
4.6739e-05
-2.55907e-05
4.78456e-05
-2.65945e-05
4.8947e-05
-2.76162e-05
5.00416e-05
-2.86556e-05
5.11282e-05
-2.97123e-05
5.22053e-05
-3.07862e-05
5.32712e-05
-3.18768e-05
5.43244e-05
-3.29841e-05
5.53631e-05
-3.41077e-05
5.63854e-05
-3.52474e-05
5.73894e-05
-3.64031e-05
5.83729e-05
-3.75745e-05
5.93337e-05
-3.87615e-05
6.02692e-05
-3.9964e-05
6.1177e-05
-4.1182e-05
6.2054e-05
-4.24153e-05
6.28972e-05
-4.36639e-05
6.37033e-05
-4.4928e-05
6.44685e-05
-4.62075e-05
6.5189e-05
-4.75026e-05
6.58603e-05
-4.88135e-05
6.64778e-05
-5.01404e-05
6.70362e-05
-5.14836e-05
6.753e-05
-5.28434e-05
6.79528e-05
-5.42203e-05
6.82981e-05
-5.56145e-05
6.85584e-05
-5.70268e-05
6.87257e-05
-5.84574e-05
6.87912e-05
-5.99071e-05
6.87453e-05
-6.13764e-05
6.85777e-05
-6.2866e-05
6.82769e-05
-6.43764e-05
6.78305e-05
-6.59084e-05
6.72252e-05
-6.74625e-05
6.64463e-05
-6.90393e-05
6.54781e-05
-7.06393e-05
6.43034e-05
-7.2263e-05
6.29037e-05
-7.39105e-05
6.12592e-05
-7.5582e-05
5.93483e-05
-7.72773e-05
5.71479e-05
-7.89959e-05
5.46334e-05
-8.0737e-05
5.17782e-05
-8.24992e-05
4.85543e-05
4.49317e-05
-8.42806e-05
-4.8141e-09
2.16524e-07
-1.94441e-08
6.57879e-07
-4.42359e-08
1.11472e-06
-7.95392e-08
1.58728e-06
-1.25707e-07
2.07581e-06
-1.83096e-07
2.58053e-06
-2.52064e-07
3.10163e-06
-3.32972e-07
3.63934e-06
-4.26184e-07
4.19383e-06
-5.32061e-07
4.76528e-06
-6.50967e-07
5.35384e-06
-7.83267e-07
5.95966e-06
-9.29323e-07
6.58286e-06
-1.08949e-06
7.22356e-06
-1.26414e-06
7.88186e-06
-1.45362e-06
8.55781e-06
-1.65827e-06
9.25148e-06
-1.87846e-06
9.96291e-06
-2.11451e-06
1.06921e-05
-2.36677e-06
1.1439e-05
-2.63555e-06
1.22037e-05
-2.92119e-06
1.2986e-05
-3.22397e-06
1.37858e-05
-3.54421e-06
1.46031e-05
-3.8822e-06
1.54377e-05
-4.23819e-06
1.62895e-05
-4.61247e-06
1.71582e-05
-5.00527e-06
1.80436e-05
-5.41682e-06
1.89454e-05
-5.84734e-06
1.98635e-05
-6.29703e-06
2.07973e-05
-6.76607e-06
2.17466e-05
-7.25462e-06
2.27111e-05
-7.76282e-06
2.36902e-05
-8.2908e-06
2.46835e-05
-8.83864e-06
2.56906e-05
-9.40644e-06
2.67109e-05
-9.99424e-06
2.77438e-05
-1.06021e-05
2.87889e-05
-1.123e-05
2.98453e-05
-1.18779e-05
3.09126e-05
-1.25458e-05
3.199e-05
-1.32337e-05
3.30768e-05
-1.39414e-05
3.41722e-05
-1.46688e-05
3.52755e-05
-1.54159e-05
3.63858e-05
-1.61824e-05
3.75023e-05
-1.69683e-05
3.8624e-05
-1.77732e-05
3.97502e-05
-1.8597e-05
4.08797e-05
-1.94395e-05
4.20117e-05
-2.03004e-05
4.31451e-05
-2.11794e-05
4.42788e-05
-2.20762e-05
4.54118e-05
-2.29907e-05
4.65428e-05
-2.39224e-05
4.76707e-05
-2.48711e-05
4.87943e-05
-2.58365e-05
4.99123e-05
-2.68182e-05
5.10233e-05
-2.78159e-05
5.2126e-05
-2.88294e-05
5.32187e-05
-2.98583e-05
5.43001e-05
-3.09023e-05
5.53684e-05
-3.19611e-05
5.6422e-05
-3.30346e-05
5.74589e-05
-3.41223e-05
5.84772e-05
-3.52243e-05
5.94748e-05
-3.63401e-05
6.04495e-05
-3.74697e-05
6.13988e-05
-3.86129e-05
6.23202e-05
-3.97697e-05
6.32108e-05
-4.094e-05
6.40675e-05
-4.21238e-05
6.48871e-05
-4.33211e-05
6.56659e-05
-4.45321e-05
6.64e-05
-4.57568e-05
6.70851e-05
-4.69956e-05
6.77166e-05
-4.82486e-05
6.82893e-05
-4.95162e-05
6.87976e-05
-5.07988e-05
6.92354e-05
-5.20968e-05
6.95962e-05
-5.34108e-05
6.98724e-05
-5.47414e-05
7.00563e-05
-5.60891e-05
7.0139e-05
-5.74548e-05
7.0111e-05
-5.8839e-05
6.9962e-05
-6.02427e-05
6.96806e-05
-6.16667e-05
6.92545e-05
-6.31118e-05
6.86703e-05
-6.45789e-05
6.79134e-05
-6.60689e-05
6.6968e-05
-6.75826e-05
6.5817e-05
-6.91207e-05
6.44418e-05
-7.06839e-05
6.28224e-05
-7.22729e-05
6.09372e-05
-7.38878e-05
5.87629e-05
-7.55289e-05
5.62745e-05
-7.71959e-05
5.34453e-05
-7.88883e-05
5.02467e-05
4.66482e-05
-8.06047e-05
-4.71075e-09
2.21234e-07
-1.90296e-08
6.72198e-07
-4.32978e-08
1.13899e-06
-7.786e-08
1.62185e-06
-1.23064e-07
2.12102e-06
-1.79261e-07
2.63672e-06
-2.46804e-07
3.16918e-06
-3.26047e-07
3.71858e-06
-4.17346e-07
4.28513e-06
-5.21058e-07
4.86899e-06
-6.37538e-07
5.47032e-06
-7.67142e-07
6.08926e-06
-9.10225e-07
6.72594e-06
-1.06714e-06
7.38048e-06
-1.23823e-06
8.05295e-06
-1.42384e-06
8.74343e-06
-1.62432e-06
9.45196e-06
-1.84e-06
1.01786e-05
-2.0712e-06
1.09233e-05
-2.31825e-06
1.16861e-05
-2.58146e-06
1.24669e-05
-2.86113e-06
1.32656e-05
-3.15756e-06
1.40822e-05
-3.47102e-06
1.49166e-05
-3.80179e-06
1.57685e-05
-4.15011e-06
1.66378e-05
-4.51624e-06
1.75243e-05
-4.9004e-06
1.84277e-05
-5.30279e-06
1.93478e-05
-5.72361e-06
2.02843e-05
-6.16303e-06
2.12367e-05
-6.6212e-06
2.22048e-05
-7.09826e-06
2.31881e-05
-7.59432e-06
2.41862e-05
-8.10948e-06
2.51987e-05
-8.64379e-06
2.62249e-05
-9.19732e-06
2.72644e-05
-9.77007e-06
2.83166e-05
-1.0362e-05
2.93808e-05
-1.09732e-05
3.04565e-05
-1.16036e-05
3.15429e-05
-1.2253e-05
3.26394e-05
-1.29214e-05
3.37452e-05
-1.36086e-05
3.48595e-05
-1.43146e-05
3.59814e-05
-1.50391e-05
3.71103e-05
-1.57819e-05
3.82451e-05
-1.65429e-05
3.9385e-05
-1.73217e-05
4.0529e-05
-1.81182e-05
4.16762e-05
-1.89321e-05
4.28256e-05
-1.9763e-05
4.3976e-05
-2.06107e-05
4.51265e-05
-2.14748e-05
4.62759e-05
-2.23551e-05
4.7423e-05
-2.32511e-05
4.85668e-05
-2.41626e-05
4.97058e-05
-2.50891e-05
5.08388e-05
-2.60303e-05
5.19646e-05
-2.69859e-05
5.30816e-05
-2.79556e-05
5.41884e-05
-2.89389e-05
5.52834e-05
-2.99356e-05
5.63651e-05
-3.09453e-05
5.74317e-05
-3.19678e-05
5.84814e-05
-3.30028e-05
5.95122e-05
-3.405e-05
6.05221e-05
-3.51093e-05
6.15088e-05
-3.61804e-05
6.247e-05
-3.72633e-05
6.3403e-05
-3.83577e-05
6.43052e-05
-3.94638e-05
6.51735e-05
-4.05814e-05
6.60047e-05
-4.17106e-05
6.67951e-05
-4.28515e-05
6.75409e-05
-4.40043e-05
6.82379e-05
-4.51693e-05
6.88815e-05
-4.63467e-05
6.94667e-05
-4.75369e-05
6.99878e-05
-4.87404e-05
7.04389e-05
-4.99577e-05
7.08134e-05
-5.11893e-05
7.11041e-05
-5.2436e-05
7.1303e-05
-5.36985e-05
7.14014e-05
-5.49776e-05
7.13901e-05
-5.62742e-05
7.12586e-05
-5.75893e-05
7.09957e-05
-5.89239e-05
7.05891e-05
-6.02791e-05
7.00254e-05
-6.16559e-05
6.92902e-05
-6.30555e-05
6.83676e-05
-6.4479e-05
6.72406e-05
-6.59276e-05
6.58904e-05
-6.74023e-05
6.42971e-05
-6.89041e-05
6.2439e-05
-7.04338e-05
6.02926e-05
-7.19922e-05
5.78328e-05
-7.35795e-05
5.50326e-05
-7.51959e-05
5.18631e-05
4.82933e-05
-7.6841e-05
-4.61602e-09
2.2585e-07
-1.86497e-08
6.86232e-07
-4.24379e-08
1.16277e-06
-7.63209e-08
1.65573e-06
-1.20642e-07
2.16534e-06
-1.75746e-07
2.69183e-06
-2.41981e-07
3.23541e-06
-3.19695e-07
3.7963e-06
-4.09239e-07
4.37467e-06
-5.1096e-07
4.97071e-06
-6.25209e-07
5.58457e-06
-7.52332e-07
6.21638e-06
-8.92675e-07
6.86629e-06
-1.04658e-06
7.53438e-06
-1.21439e-06
8.22075e-06
-1.39643e-06
8.92547e-06
-1.59304e-06
9.64857e-06
-1.80453e-06
1.03901e-05
-2.03122e-06
1.115e-05
-2.27343e-06
1.19283e-05
-2.53144e-06
1.27249e-05
-2.80554e-06
1.35397e-05
-3.09601e-06
1.43727e-05
-3.4031e-06
1.52237e-05
-3.72708e-06
1.60925e-05
-4.06818e-06
1.69789e-05
-4.42661e-06
1.78827e-05
-4.80257e-06
1.88037e-05
-5.19626e-06
1.97415e-05
-5.60784e-06
2.06958e-05
-6.03745e-06
2.16663e-05
-6.48522e-06
2.26526e-05
-6.95126e-06
2.36542e-05
-7.43564e-06
2.46706e-05
-7.93844e-06
2.57015e-05
-8.45967e-06
2.67461e-05
-8.99936e-06
2.78041e-05
-9.55749e-06
2.88747e-05
-1.0134e-05
2.99574e-05
-1.07289e-05
3.10514e-05
-1.1342e-05
3.21561e-05
-1.19733e-05
3.32707e-05
-1.26225e-05
3.43944e-05
-1.32896e-05
3.55266e-05
-1.39744e-05
3.66662e-05
-1.46765e-05
3.78124e-05
-1.53959e-05
3.89645e-05
-1.61322e-05
4.01213e-05
-1.68851e-05
4.1282e-05
-1.76544e-05
4.24455e-05
-1.84397e-05
4.36109e-05
-1.92407e-05
4.4777e-05
-2.00571e-05
4.59429e-05
-2.08884e-05
4.71072e-05
-2.17343e-05
4.8269e-05
-2.25945e-05
4.94269e-05
-2.34685e-05
5.05798e-05
-2.43559e-05
5.17263e-05
-2.52563e-05
5.2865e-05
-2.61695e-05
5.39947e-05
-2.70949e-05
5.51138e-05
-2.80322e-05
5.62207e-05
-2.8981e-05
5.7314e-05
-2.99411e-05
5.83917e-05
-3.0912e-05
5.94523e-05
-3.18935e-05
6.04937e-05
-3.28853e-05
6.15139e-05
-3.38873e-05
6.25107e-05
-3.48991e-05
6.34818e-05
-3.59206e-05
6.44246e-05
-3.69518e-05
6.53364e-05
-3.79926e-05
6.62143e-05
-3.90429e-05
6.7055e-05
-4.01028e-05
6.7855e-05
-4.11726e-05
6.86106e-05
-4.22522e-05
6.93176e-05
-4.33421e-05
6.99714e-05
-4.44425e-05
7.05671e-05
-4.55538e-05
7.10992e-05
-4.66766e-05
7.15617e-05
-4.78115e-05
7.19483e-05
-4.8959e-05
7.22516e-05
-5.012e-05
7.2464e-05
-5.12953e-05
7.25767e-05
-5.24859e-05
7.25806e-05
-5.36927e-05
7.24654e-05
-5.49169e-05
7.22199e-05
-5.61597e-05
7.18318e-05
-5.74223e-05
7.1288e-05
-5.8706e-05
7.0574e-05
-6.00123e-05
6.96739e-05
-6.13426e-05
6.85708e-05
-6.26982e-05
6.72461e-05
-6.40807e-05
6.56796e-05
-6.54914e-05
6.38497e-05
-6.69317e-05
6.17328e-05
-6.84027e-05
5.93038e-05
-6.99054e-05
5.65353e-05
-7.14405e-05
5.33982e-05
4.98613e-05
-7.30085e-05
-4.53092e-09
2.30381e-07
-1.83085e-08
7.00009e-07
-4.16658e-08
1.18613e-06
-7.49388e-08
1.689e-06
-1.18466e-07
2.20886e-06
-1.72589e-07
2.74595e-06
-2.37648e-07
3.30047e-06
-3.13987e-07
3.87264e-06
-4.0195e-07
4.46264e-06
-5.01878e-07
5.07064e-06
-6.14113e-07
5.6968e-06
-7.38996e-07
6.34127e-06
-8.76861e-07
7.00415e-06
-1.02804e-06
7.68556e-06
-1.19287e-06
8.38558e-06
-1.37167e-06
9.10426e-06
-1.56475e-06
9.84165e-06
-1.77242e-06
1.05978e-05
-1.99499e-06
1.13726e-05
-2.23275e-06
1.2166e-05
-2.48598e-06
1.29781e-05
-2.75495e-06
1.38087e-05
-3.03991e-06
1.46577e-05
-3.34112e-06
1.55249e-05
-3.65879e-06
1.64102e-05
-3.99315e-06
1.73133e-05
-4.34438e-06
1.8234e-05
-4.71267e-06
1.9172e-05
-5.09818e-06
2.0127e-05
-5.50104e-06
2.10987e-05
-5.92137e-06
2.20867e-05
-6.35928e-06
2.30905e-05
-6.81482e-06
2.41097e-05
-7.28806e-06
2.51439e-05
-7.77901e-06
2.61924e-05
-8.28768e-06
2.72548e-05
-8.81405e-06
2.83305e-05
-9.35806e-06
2.94187e-05
-9.91963e-06
3.05189e-05
-1.04987e-05
3.16304e-05
-1.1095e-05
3.27524e-05
-1.17086e-05
3.38842e-05
-1.23391e-05
3.5025e-05
-1.29864e-05
3.61739e-05
-1.36503e-05
3.733e-05
-1.43304e-05
3.84926e-05
-1.50266e-05
3.96606e-05
-1.57385e-05
4.08332e-05
-1.64657e-05
4.20092e-05
-1.7208e-05
4.31878e-05
-1.79649e-05
4.43678e-05
-1.87361e-05
4.55482e-05
-1.95212e-05
4.67279e-05
-2.03197e-05
4.79058e-05
-2.11313e-05
4.90806e-05
-2.19556e-05
5.02511e-05
-2.2792e-05
5.14162e-05
-2.36402e-05
5.25744e-05
-2.44997e-05
5.37245e-05
-2.53701e-05
5.48651e-05
-2.62509e-05
5.59946e-05
-2.71419e-05
5.71117e-05
-2.80425e-05
5.82146e-05
-2.89524e-05
5.93017e-05
-2.98713e-05
6.03712e-05
-3.07988e-05
6.14212e-05
-3.17347e-05
6.24497e-05
-3.26786e-05
6.34546e-05
-3.36305e-05
6.44336e-05
-3.459e-05
6.53841e-05
-3.55571e-05
6.63035e-05
-3.65318e-05
6.7189e-05
-3.7514e-05
6.80372e-05
-3.85038e-05
6.88448e-05
-3.95014e-05
6.96082e-05
-4.05068e-05
7.03231e-05
-4.15205e-05
7.09851e-05
-4.25428e-05
7.15893e-05
-4.35741e-05
7.21305e-05
-4.4615e-05
7.26026e-05
-4.56662e-05
7.29994e-05
-4.67282e-05
7.33137e-05
-4.78021e-05
7.35378e-05
-4.88887e-05
7.36634e-05
-4.99891e-05
7.3681e-05
-5.11044e-05
7.35807e-05
-5.22358e-05
7.33513e-05
-5.33848e-05
7.29808e-05
-5.45528e-05
7.2456e-05
-5.57412e-05
7.17624e-05
-5.69517e-05
7.08845e-05
-5.81861e-05
6.98052e-05
-5.9446e-05
6.8506e-05
-6.07332e-05
6.69668e-05
-6.20496e-05
6.5166e-05
-6.33968e-05
6.308e-05
-6.47765e-05
6.06835e-05
-6.61902e-05
5.79491e-05
-6.76394e-05
5.48474e-05
5.1347e-05
-6.91252e-05
-4.45646e-09
2.34838e-07
-1.801e-08
7.13563e-07
-4.09903e-08
1.20911e-06
-7.37297e-08
1.72174e-06
-1.16563e-07
2.2517e-06
-1.69825e-07
2.79921e-06
-2.33855e-07
3.3645e-06
-3.08989e-07
3.94777e-06
-3.95563e-07
4.54921e-06
-4.93916e-07
5.16899e-06
-6.04379e-07
5.80726e-06
-7.27285e-07
6.46417e-06
-8.62962e-07
7.13983e-06
-1.01173e-06
7.83434e-06
-1.17392e-06
8.54777e-06
-1.34982e-06
9.28017e-06
-1.53976e-06
1.00316e-05
-1.74402e-06
1.0802e-05
-1.9629e-06
1.15914e-05
-2.19666e-06
1.23998e-05
-2.44557e-06
1.3227e-05