/*--------------------------------*- C++ -*----------------------------------*\
| =========                 |                                                 |
| \\      /  F ield         | OpenFOAM: The Open Source CFD Toolbox           |
|  \\    /   O peration     | Version:  2406                                  |
|   \\  /    A nd           | Website:  www.openfoam.com                      |
|    \\/     M anipulation  |                                                 |
\*---------------------------------------------------------------------------*/
FoamFile
{
    version     2.0;
    format      ascii;
    arch        "LSB;label=32;scalar=64";
    class       volVectorField;
    location    "5.98";
    object      U;
}
// * * * * * * * * * * * * * * * * * * * * * * * * * * * * * * * * * * * * * //

dimensions      [0 1 -1 0 0 0 0];

internalField   nonuniform List<vector> 
40000
(
(-3.63327e-06 0.00176824 0)
(-2.33563e-05 0.00528646 0)
(-6.85967e-05 0.00881374 0)
(-0.000139045 0.0123489 0)
(-0.000234411 0.0158907 0)
(-0.000355416 0.0194377 0)
(-0.000502959 0.0229887 0)
(-0.000677878 0.0265422 0)
(-0.000880982 0.0300967 0)
(-0.00111309 0.0336505 0)
(-0.00137502 0.0372022 0)
(-0.00166762 0.0407501 0)
(-0.0019917 0.0442925 0)
(-0.00234811 0.0478277 0)
(-0.00273767 0.0513538 0)
(-0.00316123 0.054869 0)
(-0.00361961 0.0583715 0)
(-0.00411365 0.0618593 0)
(-0.00464417 0.0653305 0)
(-0.00521199 0.0687831 0)
(-0.00581792 0.0722151 0)
(-0.00646277 0.0756244 0)
(-0.00714734 0.0790088 0)
(-0.00787241 0.0823663 0)
(-0.00863876 0.0856947 0)
(-0.00944714 0.0889919 0)
(-0.0102983 0.0922555 0)
(-0.011193 0.0954835 0)
(-0.0121318 0.0986735 0)
(-0.0131156 0.101823 0)
(-0.0141449 0.104931 0)
(-0.0152205 0.107993 0)
(-0.0163428 0.111009 0)
(-0.0175126 0.113975 0)
(-0.0187304 0.116889 0)
(-0.0199967 0.11975 0)
(-0.021312 0.122555 0)
(-0.0226768 0.125301 0)
(-0.0240915 0.127987 0)
(-0.0255566 0.13061 0)
(-0.0270724 0.133167 0)
(-0.0286393 0.135658 0)
(-0.0302576 0.138079 0)
(-0.0319275 0.140429 0)
(-0.0336493 0.142706 0)
(-0.0354232 0.144907 0)
(-0.0372493 0.14703 0)
(-0.0391278 0.149073 0)
(-0.0410588 0.151035 0)
(-0.0430423 0.152914 0)
(-0.0450783 0.154707 0)
(-0.0471669 0.156413 0)
(-0.049308 0.15803 0)
(-0.0515015 0.159555 0)
(-0.0537474 0.160988 0)
(-0.0560456 0.162326 0)
(-0.0583958 0.163567 0)
(-0.0607979 0.16471 0)
(-0.0632519 0.165752 0)
(-0.0657573 0.166691 0)
(-0.0683141 0.167526 0)
(-0.070922 0.168255 0)
(-0.0735809 0.168874 0)
(-0.0762903 0.169382 0)
(-0.0790502 0.169776 0)
(-0.0818603 0.170053 0)
(-0.0847203 0.170211 0)
(-0.0876301 0.170247 0)
(-0.0905893 0.170156 0)
(-0.0935978 0.169936 0)
(-0.0966553 0.169583 0)
(-0.0997617 0.169092 0)
(-0.102917 0.168458 0)
(-0.10612 0.167678 0)
(-0.109372 0.166744 0)
(-0.112672 0.165651 0)
(-0.116019 0.164393 0)
(-0.119415 0.162963 0)
(-0.122857 0.161353 0)
(-0.126347 0.159555 0)
(-0.129884 0.157559 0)
(-0.133466 0.155357 0)
(-0.137095 0.152938 0)
(-0.140769 0.150291 0)
(-0.144487 0.147403 0)
(-0.148249 0.144264 0)
(-0.152053 0.140858 0)
(-0.155898 0.137172 0)
(-0.159782 0.133191 0)
(-0.163702 0.128899 0)
(-0.167657 0.124278 0)
(-0.171643 0.119312 0)
(-0.175656 0.113982 0)
(-0.179691 0.108269 0)
(-0.183743 0.102153 0)
(-0.187805 0.0956148 0)
(-0.191868 0.0886337 0)
(-0.195925 0.0811891 0)
(-0.199963 0.0732605 0)
(-0.203969 0.0648278 0)
(-3.60753e-06 0.00182414 0)
(-2.31992e-05 0.00545339 0)
(-6.81479e-05 0.00909181 0)
(-0.000138146 0.0127382 0)
(-0.000232912 0.0163912 0)
(-0.000353165 0.0200494 0)
(-0.000499806 0.0237115 0)
(-0.000673671 0.0273759 0)
(-0.000875568 0.0310411 0)
(-0.00110632 0.0347055 0)
(-0.00136674 0.0383674 0)
(-0.00165766 0.042025 0)
(-0.00197993 0.0456768 0)
(-0.00233436 0.0493207 0)
(-0.00272179 0.0529551 0)
(-0.00314305 0.0565779 0)
(-0.00359898 0.0601873 0)
(-0.00409039 0.0637812 0)
(-0.00461812 0.0673577 0)
(-0.00518298 0.0709146 0)
(-0.00578577 0.0744499 0)
(-0.00642729 0.0779614 0)
(-0.00710834 0.081447 0)
(-0.0078297 0.0849044 0)
(-0.00859211 0.0883314 0)
(-0.00939634 0.0917257 0)
(-0.0102431 0.0950851 0)
(-0.0111332 0.0984073 0)
(-0.0120671 0.10169 0)
(-0.0130457 0.104931 0)
(-0.0140696 0.108127 0)
(-0.0151394 0.111277 0)
(-0.0162557 0.114378 0)
(-0.017419 0.117428 0)
(-0.0186299 0.120424 0)
(-0.019889 0.123364 0)
(-0.0211966 0.126246 0)
(-0.0225533 0.129067 0)
(-0.0239594 0.131826 0)
(-0.0254153 0.134519 0)
(-0.0269214 0.137145 0)
(-0.028478 0.139701 0)
(-0.0300853 0.142185 0)
(-0.0317435 0.144596 0)
(-0.0334529 0.14693 0)
(-0.0352136 0.149187 0)
(-0.0370257 0.151363 0)
(-0.0388894 0.153457 0)
(-0.0408046 0.155466 0)
(-0.0427713 0.15739 0)
(-0.0447896 0.159225 0)
(-0.0468593 0.160971 0)
(-0.0489804 0.162625 0)
(-0.0511528 0.164185 0)
(-0.0533763 0.16565 0)
(-0.0556507 0.167017 0)
(-0.0579759 0.168285 0)
(-0.0603516 0.169452 0)
(-0.0627776 0.170516 0)
(-0.0652537 0.171475 0)
(-0.0677795 0.172328 0)
(-0.0703549 0.173071 0)
(-0.0729796 0.173703 0)
(-0.0756533 0.174222 0)
(-0.0783757 0.174625 0)
(-0.0811465 0.174909 0)
(-0.0839656 0.175072 0)
(-0.0868327 0.17511 0)
(-0.0897474 0.175021 0)
(-0.0927098 0.174801 0)
(-0.0957194 0.174446 0)
(-0.0987762 0.173951 0)
(-0.10188 0.173313 0)
(-0.105031 0.172526 0)
(-0.108228 0.171585 0)
(-0.111472 0.170484 0)
(-0.114763 0.169216 0)
(-0.1181 0.167775 0)
(-0.121483 0.166152 0)
(-0.124913 0.164341 0)
(-0.128389 0.162331 0)
(-0.131911 0.160113 0)
(-0.135478 0.157677 0)
(-0.139091 0.155011 0)
(-0.142749 0.152104 0)
(-0.146452 0.148943 0)
(-0.150198 0.145514 0)
(-0.153987 0.141803 0)
(-0.157817 0.137794 0)
(-0.161688 0.13347 0)
(-0.165596 0.128816 0)
(-0.16954 0.123812 0)
(-0.173516 0.11844 0)
(-0.17752 0.11268 0)
(-0.181549 0.106512 0)
(-0.185596 0.0999152 0)
(-0.189654 0.0928673 0)
(-0.193716 0.0853472 0)
(-0.197771 0.0773328 0)
(-0.201809 0.0688027 0)
(-3.5801e-06 0.00187875 0)
(-2.30328e-05 0.00561652 0)
(-6.76701e-05 0.00936359 0)
(-0.000137188 0.0131187 0)
(-0.000231314 0.0168804 0)
(-0.000350764 0.0206474 0)
(-0.000496439 0.0244181 0)
(-0.000669172 0.028191 0)
(-0.000869772 0.0319646 0)
(-0.00109905 0.0357371 0)
(-0.00135784 0.0395067 0)
(-0.00164696 0.0432719 0)
(-0.00196725 0.0470306 0)
(-0.00231953 0.0507811 0)
(-0.00270463 0.0545215 0)
(-0.00312339 0.0582496 0)
(-0.00357663 0.0619637 0)
(-0.00406517 0.0656615 0)
(-0.00458983 0.069341 0)
(-0.00515142 0.0730001 0)
(-0.00575075 0.0766365 0)
(-0.00638859 0.0802481 0)
(-0.00706574 0.0838326 0)
(-0.00778295 0.0873878 0)
(-0.00854099 0.0909112 0)
(-0.00934059 0.0944006 0)
(-0.0101825 0.0978537 0)
(-0.0110673 0.101268 0)
(-0.0119958 0.104641 0)
(-0.0129686 0.107971 0)
(-0.0139863 0.111254 0)
(-0.0150495 0.114489 0)
(-0.0161589 0.117674 0)
(-0.0173148 0.120805 0)
(-0.018518 0.12388 0)
(-0.0197688 0.126898 0)
(-0.0210676 0.129854 0)
(-0.022415 0.132748 0)
(-0.0238112 0.135577 0)
(-0.0252566 0.138339 0)
(-0.0267515 0.14103 0)
(-0.0282961 0.14365 0)
(-0.0298908 0.146195 0)
(-0.0315355 0.148664 0)
(-0.0332306 0.151054 0)
(-0.0349761 0.153363 0)
(-0.0367721 0.15559 0)
(-0.0386186 0.157732 0)
(-0.0405155 0.159786 0)
(-0.0424628 0.161753 0)
(-0.0444605 0.163628 0)
(-0.0465085 0.165411 0)
(-0.0486065 0.167099 0)
(-0.0507543 0.168691 0)
(-0.0529519 0.170186 0)
(-0.0551989 0.17158 0)
(-0.0574951 0.172872 0)
(-0.0598402 0.174061 0)
(-0.062234 0.175145 0)
(-0.0646761 0.176121 0)
(-0.0671662 0.176989 0)
(-0.0697039 0.177745 0)
(-0.0722891 0.178387 0)
(-0.0749213 0.178914 0)
(-0.0776003 0.179324 0)
(-0.0803258 0.179613 0)
(-0.0830974 0.179778 0)
(-0.085915 0.179818 0)
(-0.0887783 0.179728 0)
(-0.091687 0.179506 0)
(-0.094641 0.179147 0)
(-0.0976402 0.178648 0)
(-0.100684 0.178004 0)
(-0.103773 0.17721 0)
(-0.106907 0.17626 0)
(-0.110086 0.17515 0)
(-0.11331 0.173872 0)
(-0.116579 0.172419 0)
(-0.119892 0.170785 0)
(-0.123251 0.16896 0)
(-0.126654 0.166936 0)
(-0.130103 0.164704 0)
(-0.133597 0.162252 0)
(-0.137136 0.15957 0)
(-0.140721 0.156646 0)
(-0.14435 0.153466 0)
(-0.148024 0.150017 0)
(-0.151742 0.146284 0)
(-0.155504 0.142252 0)
(-0.159308 0.137904 0)
(-0.163153 0.133221 0)
(-0.167038 0.128187 0)
(-0.17096 0.122781 0)
(-0.174917 0.116983 0)
(-0.178904 0.110772 0)
(-0.182917 0.104126 0)
(-0.186951 0.0970228 0)
(-0.190999 0.0894399 0)
(-0.195052 0.0813539 0)
(-0.199101 0.0727416 0)
(-3.55111e-06 0.00193209 0)
(-2.28573e-05 0.00577586 0)
(-6.71673e-05 0.00962907 0)
(-0.000136183 0.0134904 0)
(-0.000229637 0.0173584 0)
(-0.00034825 0.0212316 0)
(-0.000492918 0.0251086 0)
(-0.000664473 0.0289877 0)
(-0.000863723 0.0328672 0)
(-0.00109148 0.0367454 0)
(-0.00134857 0.0406206 0)
(-0.00163581 0.0444908 0)
(-0.00195404 0.0483543 0)
(-0.00230408 0.052209 0)
(-0.00268676 0.0560531 0)
(-0.0031029 0.0598843 0)
(-0.00355332 0.0637008 0)
(-0.00403884 0.0675003 0)
(-0.00456028 0.0712806 0)
(-0.00511842 0.0750396 0)
(-0.00571408 0.078775 0)
(-0.00634802 0.0824845 0)
(-0.00702102 0.0861658 0)
(-0.00773383 0.0898165 0)
(-0.00848719 0.0934342 0)
(-0.00928182 0.0970165 0)
(-0.0101184 0.100561 0)
(-0.0109977 0.104065 0)
(-0.0119202 0.107527 0)
(-0.0128867 0.110943 0)
(-0.0138977 0.114311 0)
(-0.0149538 0.117629 0)
(-0.0160556 0.120895 0)
(-0.0172036 0.124105 0)
(-0.0183981 0.127257 0)
(-0.0196398 0.130349 0)
(-0.020929 0.133379 0)
(-0.022266 0.136344 0)
(-0.0236513 0.13924 0)
(-0.025085 0.142068 0)
(-0.0265674 0.144822 0)
(-0.0280988 0.147503 0)
(-0.0296793 0.150106 0)
(-0.0313091 0.152631 0)
(-0.0329882 0.155074 0)
(-0.0347166 0.157434 0)
(-0.0364945 0.159708 0)
(-0.0383216 0.161895 0)
(-0.0401981 0.163993 0)
(-0.0421236 0.165999 0)
(-0.0440982 0.167912 0)
(-0.0461216 0.169729 0)
(-0.0481935 0.171449 0)
(-0.0503138 0.173071 0)
(-0.0524821 0.174592 0)
(-0.0546982 0.17601 0)
(-0.0569617 0.177324 0)
(-0.0592723 0.178532 0)
(-0.0616296 0.179633 0)
(-0.0640332 0.180624 0)
(-0.0664829 0.181503 0)
(-0.0689781 0.18227 0)
(-0.0715186 0.18292 0)
(-0.074104 0.183453 0)
(-0.0767339 0.183867 0)
(-0.079408 0.184158 0)
(-0.0821259 0.184324 0)
(-0.0848874 0.184363 0)
(-0.0876923 0.18427 0)
(-0.0905402 0.184044 0)
(-0.0934311 0.18368 0)
(-0.0963647 0.183174 0)
(-0.099341 0.182523 0)
(-0.10236 0.18172 0)
(-0.105422 0.180761 0)
(-0.108526 0.17964 0)
(-0.111673 0.178351 0)
(-0.114863 0.176887 0)
(-0.118096 0.17524 0)
(-0.121373 0.173403 0)
(-0.124693 0.171365 0)
(-0.128057 0.169119 0)
(-0.131465 0.166653 0)
(-0.134918 0.163956 0)
(-0.138416 0.161016 0)
(-0.141959 0.15782 0)
(-0.145546 0.154355 0)
(-0.149179 0.150604 0)
(-0.152857 0.146552 0)
(-0.15658 0.142183 0)
(-0.160346 0.137479 0)
(-0.164156 0.13242 0)
(-0.168007 0.126987 0)
(-0.171898 0.121158 0)
(-0.175825 0.114913 0)
(-0.179787 0.108229 0)
(-0.183777 0.101082 0)
(-0.187791 0.0934488 0)
(-0.191823 0.0853046 0)
(-0.195862 0.0766252 0)
(-3.52158e-06 0.00198416 0)
(-2.26791e-05 0.00593144 0)
(-6.66573e-05 0.00988832 0)
(-0.000135164 0.0138534 0)
(-0.000227941 0.0178253 0)
(-0.000345707 0.0218024 0)
(-0.00048936 0.0257833 0)
(-0.00065973 0.0297661 0)
(-0.000857622 0.0337492 0)
(-0.00108385 0.0377308 0)
(-0.00133923 0.0417091 0)
(-0.00162459 0.0456822 0)
(-0.00194075 0.0496481 0)
(-0.00228853 0.0536049 0)
(-0.00266876 0.0575503 0)
(-0.00308226 0.0614825 0)
(-0.00352984 0.0653991 0)
(-0.00401231 0.0692981 0)
(-0.00453047 0.073177 0)
(-0.00508512 0.0770338 0)
(-0.00567704 0.0808659 0)
(-0.00630699 0.0846711 0)
(-0.00697574 0.0884469 0)
(-0.00768403 0.092191 0)
(-0.00843257 0.0959007 0)
(-0.00922206 0.0995737 0)
(-0.0100532 0.103207 0)
(-0.0109266 0.106799 0)
(-0.011843 0.110347 0)
(-0.0128028 0.113847 0)
(-0.0138068 0.117298 0)
(-0.0148554 0.120697 0)
(-0.0159492 0.124041 0)
(-0.0170886 0.127328 0)
(-0.0182741 0.130555 0)
(-0.019506 0.13372 0)
(-0.0207848 0.136819 0)
(-0.0221108 0.139852 0)
(-0.0234842 0.142814 0)
(-0.0249052 0.145705 0)
(-0.0263742 0.14852 0)
(-0.0278912 0.151259 0)
(-0.0294564 0.153918 0)
(-0.0310697 0.156496 0)
(-0.0327313 0.158989 0)
(-0.0344411 0.161397 0)
(-0.0361991 0.163717 0)
(-0.038005 0.165946 0)
(-0.0398589 0.168083 0)
(-0.0417605 0.170126 0)
(-0.0437095 0.172073 0)
(-0.0457058 0.173922 0)
(-0.047749 0.175672 0)
(-0.0498387 0.17732 0)
(-0.0519747 0.178864 0)
(-0.0541565 0.180304 0)
(-0.0563838 0.181637 0)
(-0.0586561 0.182862 0)
(-0.060973 0.183976 0)
(-0.063334 0.184979 0)
(-0.0657388 0.185867 0)
(-0.0681868 0.186641 0)
(-0.0706777 0.187297 0)
(-0.0732109 0.187833 0)
(-0.0757862 0.188248 0)
(-0.0784031 0.188539 0)
(-0.0810613 0.188703 0)
(-0.0837604 0.188738 0)
(-0.0865001 0.188641 0)
(-0.0892803 0.188408 0)
(-0.0921006 0.188037 0)
(-0.0949611 0.187522 0)
(-0.0978616 0.186861 0)
(-0.100802 0.186048 0)
(-0.103783 0.185078 0)
(-0.106803 0.183946 0)
(-0.109864 0.182645 0)
(-0.112966 0.181168 0)
(-0.116109 0.179508 0)
(-0.119293 0.177658 0)
(-0.122519 0.175608 0)
(-0.125787 0.173348 0)
(-0.129098 0.170868 0)
(-0.132452 0.168158 0)
(-0.13585 0.165204 0)
(-0.139293 0.161994 0)
(-0.142781 0.158514 0)
(-0.146315 0.154748 0)
(-0.149894 0.150681 0)
(-0.15352 0.146296 0)
(-0.157192 0.141574 0)
(-0.16091 0.136497 0)
(-0.164674 0.131043 0)
(-0.168482 0.125193 0)
(-0.172332 0.118922 0)
(-0.176223 0.112209 0)
(-0.180152 0.105028 0)
(-0.184113 0.0973563 0)
(-0.188103 0.0891671 0)
(-0.192114 0.0804349 0)
(-3.49264e-06 0.002035 0)
(-2.25049e-05 0.00608336 0)
(-6.61596e-05 0.0101415 0)
(-0.00013417 0.014208 0)
(-0.000226287 0.0182814 0)
(-0.000343232 0.0223601 0)
(-0.000485899 0.0264424 0)
(-0.000655118 0.0305267 0)
(-0.000851694 0.0346111 0)
(-0.00107644 0.0386939 0)
(-0.00133016 0.0427731 0)
(-0.00161369 0.0468468 0)
(-0.00192785 0.0509129 0)
(-0.00227344 0.0549694 0)
(-0.0026513 0.0590141 0)
(-0.00306222 0.0630449 0)
(-0.00350703 0.0670595 0)
(-0.00398652 0.0710557 0)
(-0.00450148 0.0750311 0)
(-0.0050527 0.0789834 0)
(-0.00564094 0.0829101 0)
(-0.00626697 0.0868088 0)
(-0.00693151 0.090677 0)
(-0.00763529 0.0945121 0)
(-0.00837902 0.0983117 0)
(-0.00916337 0.102073 0)
(-0.009989 0.105794 0)
(-0.0108565 0.109471 0)
(-0.0117666 0.113102 0)
(-0.0127197 0.116685 0)
(-0.0137165 0.120216 0)
(-0.0147574 0.123693 0)
(-0.0158429 0.127113 0)
(-0.0169735 0.130474 0)
(-0.0181495 0.133774 0)
(-0.0193713 0.137008 0)
(-0.0206392 0.140176 0)
(-0.0219535 0.143274 0)
(-0.0233144 0.146299 0)
(-0.0247221 0.14925 0)
(-0.0261768 0.152124 0)
(-0.0276785 0.154918 0)
(-0.0292272 0.15763 0)
(-0.030823 0.160258 0)
(-0.0324658 0.162799 0)
(-0.0341556 0.165251 0)
(-0.0358921 0.167613 0)
(-0.0376752 0.169882 0)
(-0.0395047 0.172056 0)
(-0.0413803 0.174133 0)
(-0.0433017 0.176111 0)
(-0.0452685 0.177989 0)
(-0.0472803 0.179764 0)
(-0.0493369 0.181435 0)
(-0.0514376 0.183001 0)
(-0.053582 0.184459 0)
(-0.0557698 0.185807 0)
(-0.0580002 0.187045 0)
(-0.0602729 0.18817 0)
(-0.0625874 0.189181 0)
(-0.064943 0.190076 0)
(-0.0673393 0.190854 0)
(-0.0697757 0.191512 0)
(-0.0722519 0.192049 0)
(-0.0747673 0.192462 0)
(-0.0773214 0.192749 0)
(-0.0799139 0.192909 0)
(-0.0825445 0.192938 0)
(-0.0852127 0.192833 0)
(-0.0879183 0.192592 0)
(-0.0906612 0.192211 0)
(-0.0934411 0.191686 0)
(-0.0962581 0.191013 0)
(-0.0991121 0.190188 0)
(-0.102003 0.189205 0)
(-0.104932 0.18806 0)
(-0.107898 0.186745 0)
(-0.110902 0.185255 0)
(-0.113944 0.183582 0)
(-0.117025 0.181718 0)
(-0.120146 0.179654 0)
(-0.123307 0.177381 0)
(-0.126509 0.174888 0)
(-0.129753 0.172165 0)
(-0.13304 0.169198 0)
(-0.13637 0.165976 0)
(-0.139745 0.162484 0)
(-0.143166 0.158706 0)
(-0.146633 0.154627 0)
(-0.150148 0.15023 0)
(-0.15371 0.145496 0)
(-0.157321 0.140405 0)
(-0.160981 0.134937 0)
(-0.164689 0.129071 0)
(-0.168446 0.122783 0)
(-0.172249 0.116049 0)
(-0.176097 0.108846 0)
(-0.179987 0.101146 0)
(-0.183916 0.0929244 0)
(-0.187877 0.0841534 0)
(-3.46539e-06 0.00208463 0)
(-2.23418e-05 0.00623172 0)
(-6.56944e-05 0.0103888 0)
(-0.000133242 0.0145544 0)
(-0.000224745 0.018727 0)
(-0.000340925 0.022905 0)
(-0.000482675 0.0270866 0)
(-0.000650826 0.0312701 0)
(-0.000846178 0.0354537 0)
(-0.00106954 0.0396354 0)
(-0.00132173 0.0438134 0)
(-0.00160356 0.0479854 0)
(-0.00191585 0.0521496 0)
(-0.00225941 0.0563037 0)
(-0.00263505 0.0604455 0)
(-0.00304358 0.0645728 0)
(-0.0034858 0.0686833 0)
(-0.00396249 0.0727745 0)
(-0.00447444 0.0768442 0)
(-0.00502242 0.0808899 0)
(-0.00560718 0.0849089 0)
(-0.00622946 0.0888989 0)
(-0.00688998 0.0928573 0)
(-0.00758944 0.0967813 0)
(-0.00832852 0.100668 0)
(-0.00910789 0.104516 0)
(-0.00992816 0.108321 0)
(-0.0107899 0.112082 0)
(-0.0116938 0.115794 0)
(-0.0126403 0.119456 0)
(-0.0136299 0.123065 0)
(-0.0146631 0.126618 0)
(-0.0157403 0.130112 0)
(-0.0168619 0.133545 0)
(-0.0180282 0.136914 0)
(-0.0192397 0.140216 0)
(-0.0204964 0.143449 0)
(-0.0217987 0.146609 0)
(-0.0231467 0.149695 0)
(-0.0245405 0.152704 0)
(-0.0259802 0.155632 0)
(-0.0274659 0.158479 0)
(-0.0289974 0.161241 0)
(-0.0305747 0.163916 0)
(-0.0321977 0.166502 0)
(-0.0338662 0.168996 0)
(-0.0355799 0.171397 0)
(-0.0373387 0.173702 0)
(-0.0391422 0.17591 0)
(-0.04099 0.178018 0)
(-0.0428817 0.180024 0)
(-0.044817 0.181927 0)
(-0.0467952 0.183725 0)
(-0.048816 0.185416 0)
(-0.0508788 0.186999 0)
(-0.052983 0.188471 0)
(-0.055128 0.189832 0)
(-0.0573133 0.19108 0)
(-0.0595382 0.192213 0)
(-0.0618022 0.193229 0)
(-0.0641046 0.194127 0)
(-0.0664449 0.194905 0)
(-0.0688224 0.195563 0)
(-0.0712367 0.196096 0)
(-0.073687 0.196505 0)
(-0.0761731 0.196786 0)
(-0.0786943 0.196938 0)
(-0.0812504 0.196957 0)
(-0.0838408 0.196842 0)
(-0.0864654 0.19659 0)
(-0.089124 0.196196 0)
(-0.0918163 0.195658 0)
(-0.0945423 0.194972 0)
(-0.0973021 0.194132 0)
(-0.100096 0.193135 0)
(-0.102923 0.191975 0)
(-0.105786 0.190645 0)
(-0.108683 0.18914 0)
(-0.111615 0.187452 0)
(-0.114584 0.185574 0)
(-0.117589 0.183496 0)
(-0.120633 0.181209 0)
(-0.123715 0.178704 0)
(-0.126837 0.175968 0)
(-0.13 0.17299 0)
(-0.133206 0.169757 0)
(-0.136456 0.166255 0)
(-0.139751 0.162467 0)
(-0.143092 0.15838 0)
(-0.146481 0.153974 0)
(-0.14992 0.149231 0)
(-0.153409 0.144132 0)
(-0.156949 0.138656 0)
(-0.160542 0.132781 0)
(-0.164188 0.126482 0)
(-0.167886 0.119737 0)
(-0.171636 0.11252 0)
(-0.175436 0.104804 0)
(-0.179285 0.0965611 0)
(-0.183178 0.0877644 0)
(-3.44086e-06 0.00213313 0)
(-2.21962e-05 0.00637672 0)
(-6.52809e-05 0.0106305 0)
(-0.000132419 0.0148931 0)
(-0.000223379 0.0191627 0)
(-0.000338884 0.0234378 0)
(-0.000479827 0.0277166 0)
(-0.000647036 0.0319972 0)
(-0.000841313 0.0362778 0)
(-0.00106347 0.0405564 0)
(-0.0013143 0.0448309 0)
(-0.00159464 0.0490994 0)
(-0.00190529 0.0533595 0)
(-0.00224705 0.0576091 0)
(-0.00262074 0.0618459 0)
(-0.00302714 0.0660677 0)
(-0.00346705 0.0702719 0)
(-0.00394124 0.0744562 0)
(-0.00445049 0.078618 0)
(-0.00499555 0.0827549 0)
(-0.00557715 0.0868642 0)
(-0.00619601 0.0909434 0)
(-0.00685284 0.0949897 0)
(-0.00754832 0.0990005 0)
(-0.00828309 0.102973 0)
(-0.00905778 0.106904 0)
(-0.009873 0.110792 0)
(-0.0107293 0.114633 0)
(-0.0116272 0.118425 0)
(-0.0125673 0.122164 0)
(-0.0135499 0.125848 0)
(-0.0145756 0.129475 0)
(-0.0156446 0.13304 0)
(-0.0167574 0.136542 0)
(-0.0179142 0.139978 0)
(-0.0191152 0.143345 0)
(-0.0203607 0.14664 0)
(-0.0216509 0.14986 0)
(-0.0229857 0.153003 0)
(-0.0243653 0.156067 0)
(-0.0257897 0.159048 0)
(-0.0272587 0.161944 0)
(-0.0287724 0.164753 0)
(-0.0303305 0.167472 0)
(-0.0319328 0.170099 0)
(-0.033579 0.172632 0)
(-0.0352689 0.175069 0)
(-0.0370021 0.177407 0)
(-0.0387781 0.179645 0)
(-0.0405966 0.18178 0)
(-0.0424569 0.183811 0)
(-0.0443587 0.185736 0)
(-0.0463012 0.187553 0)
(-0.0482839 0.18926 0)
(-0.0503062 0.190857 0)
(-0.0523674 0.19234 0)
(-0.0544668 0.19371 0)
(-0.0566038 0.194964 0)
(-0.0587775 0.1961 0)
(-0.0609875 0.197118 0)
(-0.0632329 0.198016 0)
(-0.065513 0.198792 0)
(-0.0678272 0.199445 0)
(-0.0701749 0.199972 0)
(-0.0725555 0.200373 0)
(-0.0749683 0.200644 0)
(-0.0774128 0.200785 0)
(-0.0798887 0.200793 0)
(-0.0823955 0.200664 0)
(-0.0849328 0.200397 0)
(-0.0875004 0.199989 0)
(-0.0900983 0.199435 0)
(-0.0927262 0.198732 0)
(-0.0953843 0.197876 0)
(-0.0980727 0.196862 0)
(-0.100792 0.195685 0)
(-0.103542 0.194339 0)
(-0.106323 0.192818 0)
(-0.109137 0.191114 0)
(-0.111983 0.18922 0)
(-0.114864 0.187127 0)
(-0.11778 0.184827 0)
(-0.120732 0.182309 0)
(-0.123721 0.179561 0)
(-0.12675 0.176572 0)
(-0.129819 0.173329 0)
(-0.132931 0.169818 0)
(-0.136087 0.166023 0)
(-0.13929 0.161929 0)
(-0.14254 0.157518 0)
(-0.145841 0.152771 0)
(-0.149194 0.147668 0)
(-0.1526 0.142189 0)
(-0.156062 0.13631 0)
(-0.159581 0.130009 0)
(-0.163158 0.12326 0)
(-0.166793 0.116038 0)
(-0.170486 0.108315 0)
(-0.174237 0.100063 0)
(-0.178043 0.0912529 0)
(-3.4201e-06 0.00218056 0)
(-2.2075e-05 0.00651854 0)
(-6.49388e-05 0.010867 0)
(-0.000131741 0.0152244 0)
(-0.000222255 0.0195891 0)
(-0.000337209 0.0239592 0)
(-0.000477494 0.0283332 0)
(-0.000643938 0.0327089 0)
(-0.000837342 0.0370845 0)
(-0.00105851 0.041458 0)
(-0.00130825 0.0458272 0)
(-0.00158737 0.05019 0)
(-0.00189668 0.0545441 0)
(-0.00223698 0.0588873 0)
(-0.00260906 0.0632171 0)
(-0.00301371 0.0675313 0)
(-0.00345171 0.0718273 0)
(-0.00392383 0.0761025 0)
(-0.00443081 0.0803545 0)
(-0.00497339 0.0845806 0)
(-0.0055523 0.0887781 0)
(-0.00616822 0.0929443 0)
(-0.00682184 0.0970765 0)
(-0.00751381 0.101172 0)
(-0.00824476 0.105227 0)
(-0.00901527 0.109241 0)
(-0.00982591 0.113208 0)
(-0.0106772 0.117128 0)
(-0.0115697 0.120996 0)
(-0.0125037 0.12481 0)
(-0.0134798 0.128567 0)
(-0.0144983 0.132265 0)
(-0.0155595 0.135899 0)
(-0.0166637 0.139467 0)
(-0.0178111 0.142967 0)
(-0.019002 0.146396 0)
(-0.0202364 0.14975 0)
(-0.0215144 0.153028 0)
(-0.0228361 0.156225 0)
(-0.0242014 0.15934 0)
(-0.0256102 0.162371 0)
(-0.0270624 0.165313 0)
(-0.0285578 0.168166 0)
(-0.0300961 0.170926 0)
(-0.0316771 0.173591 0)
(-0.0333003 0.176159 0)
(-0.0349654 0.178628 0)
(-0.0366719 0.180996 0)
(-0.0384193 0.18326 0)
(-0.040207 0.185419 0)
(-0.0420344 0.187471 0)
(-0.0439008 0.189414 0)
(-0.0458057 0.191247 0)
(-0.0477482 0.192967 0)
(-0.0497277 0.194573 0)
(-0.0517434 0.196065 0)
(-0.0537944 0.197439 0)
(-0.0558801 0.198695 0)
(-0.0579996 0.199832 0)
(-0.060152 0.200848 0)
(-0.0623367 0.201742 0)
(-0.0645528 0.202511 0)
(-0.0667996 0.203156 0)
(-0.0690763 0.203673 0)
(-0.0713824 0.204062 0)
(-0.073717 0.204321 0)
(-0.0760797 0.204448 0)
(-0.0784699 0.20444 0)
(-0.0808873 0.204295 0)
(-0.0833313 0.204011 0)
(-0.0858018 0.203584 0)
(-0.0882986 0.203012 0)
(-0.0908215 0.20229 0)
(-0.0933708 0.201415 0)
(-0.0959465 0.200382 0)
(-0.098549 0.199186 0)
(-0.101179 0.197821 0)
(-0.103836 0.196282 0)
(-0.106522 0.194561 0)
(-0.109238 0.19265 0)
(-0.111984 0.190542 0)
(-0.114763 0.188227 0)
(-0.117574 0.185696 0)
(-0.120421 0.182936 0)
(-0.123304 0.179937 0)
(-0.126226 0.176685 0)
(-0.129189 0.173166 0)
(-0.132195 0.169366 0)
(-0.135246 0.165268 0)
(-0.138346 0.160854 0)
(-0.141495 0.156106 0)
(-0.144698 0.151003 0)
(-0.147956 0.145526 0)
(-0.151273 0.13965 0)
(-0.154649 0.133352 0)
(-0.158089 0.126607 0)
(-0.161592 0.119388 0)
(-0.165162 0.111667 0)
(-0.168797 0.103417 0)
(-0.172498 0.0946055 0)
(-3.40417e-06 0.002227 0)
(-2.19848e-05 0.00665744 0)
(-6.46877e-05 0.0110986 0)
(-0.000131246 0.015549 0)
(-0.00022144 0.0200067 0)
(-0.000336 0.0244702 0)
(-0.000475818 0.0289374 0)
(-0.000641721 0.0334064 0)
(-0.000834509 0.0378752 0)
(-0.00105498 0.0423417 0)
(-0.00130395 0.0468037 0)
(-0.00158222 0.051259 0)
(-0.00189058 0.0557052 0)
(-0.00222983 0.0601401 0)
(-0.00260076 0.0645611 0)
(-0.00300414 0.0689659 0)
(-0.00344074 0.0733517 0)
(-0.0039113 0.077716 0)
(-0.00441658 0.0820562 0)
(-0.00495727 0.0863695 0)
(-0.00553408 0.0906531 0)
(-0.00614769 0.0949044 0)
(-0.00679873 0.0991203 0)
(-0.00748784 0.103298 0)
(-0.00821561 0.107435 0)
(-0.00898259 0.111527 0)
(-0.0097893 0.115573 0)
(-0.0106362 0.119568 0)
(-0.0115239 0.123511 0)
(-0.0124525 0.127397 0)
(-0.0134227 0.131225 0)
(-0.0144346 0.13499 0)
(-0.0154885 0.138691 0)
(-0.0165846 0.142323 0)
(-0.0177231 0.145884 0)
(-0.0189042 0.149372 0)
(-0.0201278 0.152783 0)
(-0.021394 0.156114 0)
(-0.0227026 0.159363 0)
(-0.0240537 0.162527 0)
(-0.025447 0.165603 0)
(-0.0268822 0.168589 0)
(-0.0283591 0.171482 0)
(-0.0298774 0.174279 0)
(-0.0314365 0.176979 0)
(-0.0330362 0.179579 0)
(-0.0346757 0.182076 0)
(-0.0363547 0.18447 0)
(-0.0380723 0.186757 0)
(-0.039828 0.188936 0)
(-0.0416211 0.191005 0)
(-0.0434507 0.192962 0)
(-0.0453162 0.194806 0)
(-0.0472166 0.196535 0)
(-0.0491512 0.198148 0)
(-0.0511189 0.199643 0)
(-0.0531191 0.201018 0)
(-0.0551506 0.202273 0)
(-0.0572127 0.203406 0)
(-0.0593045 0.204416 0)
(-0.061425 0.205302 0)
(-0.0635733 0.206061 0)
(-0.0657487 0.206694 0)
(-0.0679503 0.207198 0)
(-0.0701773 0.207572 0)
(-0.0724291 0.207814 0)
(-0.0747049 0.207923 0)
(-0.0770043 0.207896 0)
(-0.0793267 0.207731 0)
(-0.0816717 0.207426 0)
(-0.084039 0.206978 0)
(-0.0864284 0.206385 0)
(-0.0888399 0.205641 0)
(-0.0912735 0.204745 0)
(-0.0937294 0.20369 0)
(-0.0962079 0.202473 0)
(-0.0987097 0.201088 0)
(-0.101235 0.199529 0)
(-0.103786 0.197788 0)
(-0.106362 0.19586 0)
(-0.108965 0.193735 0)
(-0.111597 0.191405 0)
(-0.114259 0.18886 0)
(-0.116953 0.186088 0)
(-0.11968 0.183079 0)
(-0.122445 0.179818 0)
(-0.125247 0.176293 0)
(-0.128092 0.172489 0)
(-0.13098 0.168388 0)
(-0.133916 0.163974 0)
(-0.136902 0.159228 0)
(-0.139942 0.15413 0)
(-0.143039 0.148659 0)
(-0.146196 0.14279 0)
(-0.149417 0.136502 0)
(-0.152704 0.129767 0)
(-0.156061 0.122559 0)
(-0.15949 0.114851 0)
(-0.162993 0.106611 0)
(-0.166572 0.0978097 0)
(-3.39411e-06 0.00227254 0)
(-2.19324e-05 0.00679367 0)
(-6.45473e-05 0.0113259 0)
(-0.000130975 0.0158674 0)
(-0.000221001 0.0204166 0)
(-0.000335359 0.0249715 0)
(-0.000474941 0.0295303 0)
(-0.000640576 0.0340909 0)
(-0.000833061 0.0386512 0)
(-0.0010532 0.043209 0)
(-0.00130179 0.0477621 0)
(-0.00157963 0.0523082 0)
(-0.00188752 0.0568449 0)
(-0.00222624 0.0613698 0)
(-0.00259656 0.0658802 0)
(-0.00299926 0.0703737 0)
(-0.00343508 0.0748476 0)
(-0.00390476 0.0792992 0)
(-0.00440901 0.0837257 0)
(-0.00494853 0.0881243 0)
(-0.00552399 0.0924922 0)
(-0.00613604 0.0968264 0)
(-0.0067853 0.101124 0)
(-0.00747235 0.105382 0)
(-0.00819775 0.109598 0)
(-0.00896202 0.113767 0)
(-0.00976564 0.117888 0)
(-0.010609 0.121958 0)
(-0.0114926 0.125972 0)
(-0.0124167 0.129928 0)
(-0.0133817 0.133824 0)
(-0.0143877 0.137655 0)
(-0.0154351 0.141419 0)
(-0.0165238 0.145112 0)
(-0.0176541 0.148732 0)
(-0.0188259 0.152276 0)
(-0.0200392 0.15574 0)
(-0.021294 0.159122 0)
(-0.02259 0.162419 0)
(-0.0239272 0.165628 0)
(-0.0253051 0.168747 0)
(-0.0267234 0.171772 0)
(-0.0281819 0.174702 0)
(-0.0296799 0.177533 0)
(-0.031217 0.180264 0)
(-0.0327926 0.182892 0)
(-0.0344061 0.185414 0)
(-0.0360567 0.18783 0)
(-0.0377438 0.190136 0)
(-0.0394665 0.192331 0)
(-0.0412241 0.194413 0)
(-0.0430155 0.196381 0)
(-0.04484 0.198232 0)
(-0.0466965 0.199966 0)
(-0.0485841 0.20158 0)
(-0.0505018 0.203075 0)
(-0.0524486 0.204447 0)
(-0.0544234 0.205696 0)
(-0.0564253 0.206822 0)
(-0.0584532 0.207821 0)
(-0.0605062 0.208695 0)
(-0.0625833 0.20944 0)
(-0.0646834 0.210057 0)
(-0.0668058 0.210544 0)
(-0.0689496 0.210899 0)
(-0.071114 0.21112 0)
(-0.0732983 0.211208 0)
(-0.0755018 0.211158 0)
(-0.0777239 0.21097 0)
(-0.0799644 0.210642 0)
(-0.0822227 0.21017 0)
(-0.0844988 0.209551 0)
(-0.0867924 0.208783 0)
(-0.0891038 0.207862 0)
(-0.0914331 0.206784 0)
(-0.0937807 0.205543 0)
(-0.0961473 0.204135 0)
(-0.0985334 0.202554 0)
(-0.10094 0.200793 0)
(-0.103369 0.198846 0)
(-0.10582 0.196703 0)
(-0.108297 0.194356 0)
(-0.1108 0.191797 0)
(-0.113332 0.189013 0)
(-0.115895 0.185993 0)
(-0.118491 0.182725 0)
(-0.121124 0.179194 0)
(-0.123796 0.175387 0)
(-0.126511 0.171286 0)
(-0.129272 0.166874 0)
(-0.132083 0.162133 0)
(-0.134948 0.157042 0)
(-0.137871 0.151581 0)
(-0.140856 0.145725 0)
(-0.143906 0.139451 0)
(-0.147028 0.132733 0)
(-0.150223 0.125544 0)
(-0.153497 0.117855 0)
(-0.156852 0.109636 0)
(-0.160292 0.100855 0)
(-3.39099e-06 0.00231728 0)
(-2.19246e-05 0.00692754 0)
(-6.45376e-05 0.0115492 0)
(-0.000130968 0.0161804 0)
(-0.000221006 0.0208195 0)
(-0.000335387 0.0254644 0)
(-0.000475008 0.0301132 0)
(-0.000640696 0.0347639 0)
(-0.000833248 0.0394141 0)
(-0.00105346 0.0440618 0)
(-0.00130214 0.0487045 0)
(-0.00158008 0.0533399 0)
(-0.00188805 0.0579654 0)
(-0.00222685 0.0625787 0)
(-0.00259723 0.0671769 0)
(-0.00299994 0.0717575 0)
(-0.00343572 0.0763178 0)
(-0.00390529 0.0808549 0)
(-0.00440934 0.085366 0)
(-0.00494854 0.0898481 0)
(-0.00552354 0.0942984 0)
(-0.00613495 0.0987137 0)
(-0.00678335 0.103091 0)
(-0.00746931 0.107427 0)
(-0.00819332 0.11172 0)
(-0.00895587 0.115965 0)
(-0.00975738 0.120159 0)
(-0.0105982 0.1243 0)
(-0.0114788 0.128383 0)
(-0.0123993 0.132407 0)
(-0.0133601 0.136368 0)
(-0.0143612 0.140262 0)
(-0.0154029 0.144086 0)
(-0.0164851 0.147838 0)
(-0.0176079 0.151513 0)
(-0.0187713 0.15511 0)
(-0.0199751 0.158625 0)
(-0.0212191 0.162054 0)
(-0.0225031 0.165396 0)
(-0.0238267 0.168647 0)
(-0.0251896 0.171805 0)
(-0.0265914 0.174866 0)
(-0.0280315 0.177829 0)
(-0.0295093 0.180691 0)
(-0.0310243 0.183448 0)
(-0.0325757 0.1861 0)
(-0.0341627 0.188644 0)
(-0.0357845 0.191077 0)
(-0.0374403 0.193398 0)
(-0.0391292 0.195605 0)
(-0.0408501 0.197696 0)
(-0.0426021 0.19967 0)
(-0.0443841 0.201524 0)
(-0.0461951 0.203258 0)
(-0.0480339 0.204871 0)
(-0.0498995 0.20636 0)
(-0.0517907 0.207725 0)
(-0.0537063 0.208965 0)
(-0.0556453 0.210078 0)
(-0.0576065 0.211063 0)
(-0.0595888 0.21192 0)
(-0.0615912 0.212648 0)
(-0.0636125 0.213244 0)
(-0.0656519 0.213709 0)
(-0.0677083 0.214041 0)
(-0.0697809 0.214239 0)
(-0.071869 0.214301 0)
(-0.0739718 0.214226 0)
(-0.0760887 0.214011 0)
(-0.0782193 0.213655 0)
(-0.0803632 0.213155 0)
(-0.0825201 0.212509 0)
(-0.08469 0.211714 0)
(-0.0868729 0.210766 0)
(-0.0890691 0.20966 0)
(-0.0912791 0.208394 0)
(-0.0935034 0.206961 0)
(-0.0957429 0.205356 0)
(-0.0979986 0.203572 0)
(-0.100272 0.201604 0)
(-0.102564 0.199442 0)
(-0.104877 0.197078 0)
(-0.107213 0.194503 0)
(-0.109574 0.191706 0)
(-0.111963 0.188676 0)
(-0.114382 0.1854 0)
(-0.116836 0.181865 0)
(-0.119326 0.178056 0)
(-0.121857 0.173956 0)
(-0.124433 0.169548 0)
(-0.127058 0.164814 0)
(-0.129736 0.159734 0)
(-0.132473 0.154286 0)
(-0.135274 0.148447 0)
(-0.138142 0.142193 0)
(-0.141084 0.135498 0)
(-0.144105 0.128334 0)
(-0.147209 0.120672 0)
(-0.150401 0.112482 0)
(-0.153687 0.103732 0)
(-3.3959e-06 0.00236134 0)
(-2.19684e-05 0.00705938 0)