# Probe 0 (0.1445 0 0.0045)
# Time        0            
0.0001        (0.99923 0 -0.000477336)
0.0002        (0.974554 0 -0.00447109)
0.0003        (0.974227 0 -0.00449059)
0.0004        (0.973898 0 -0.00452296)
0.0005        (0.973656 0 -0.00454705)
0.0006        (0.97347 0 -0.00456566)
0.0007        (0.973325 0 -0.00458036)
0.0008        (0.973208 0 -0.00459217)
0.0009        (0.973114 0 -0.00460176)
0.001         (0.973038 0 -0.00460962)
0.0011        (0.972974 0 -0.0046161)
0.0012        (0.972922 0 -0.00462145)
0.0013        (0.972878 0 -0.0046259)
0.0014        (0.972842 0 -0.00462961)
0.0015        (0.972812 0 -0.00463273)
0.0016        (0.972786 0 -0.00463535)
0.0017        (0.972764 0 -0.00463757)
0.0018        (0.972746 0 -0.00463944)
0.0019        (0.97273 0 -0.00464103)
0.002         (0.972717 0 -0.00464239)
0.0021        (0.972706 0 -0.00464354)
0.0022        (0.972696 0 -0.00464454)
0.0023        (0.972688 0 -0.00464539)
0.0024        (0.972681 0 -0.00464612)
0.0025        (0.972675 0 -0.00464676)
0.0026        (0.97267 0 -0.00464731)
0.0027        (0.972666 0 -0.0046478)
0.0028        (0.972662 0 -0.00464822)
0.0029        (0.972659 0 -0.0046486)
0.003         (0.972656 0 -0.00464893)
0.0031        (0.972654 0 -0.00464922)
0.0032        (0.972652 0 -0.00464949)
0.0033        (0.97265 0 -0.00464973)
0.0034        (0.972649 0 -0.00464994)
0.0035        (0.972647 0 -0.00465014)
0.0036        (0.972646 0 -0.00465032)
0.0037        (0.972645 0 -0.00465049)
0.0038        (0.972644 0 -0.00465065)
0.0039        (0.972644 0 -0.0046508)
0.004         (0.972643 0 -0.00465094)
0.0041        (0.972642 0 -0.00465108)
0.0042        (0.972642 0 -0.00465121)
0.0043        (0.972641 0 -0.00465134)
0.0044        (0.972641 0 -0.00465146)
0.0045        (0.972641 0 -0.00465158)
0.0046        (0.97264 0 -0.0046517)
0.0047        (0.97264 0 -0.00465181)
0.0048        (0.97264 0 -0.00465193)
0.0049        (0.97264 0 -0.00465204)
0.005         (0.97264 0 -0.00465216)
0.0051        (0.972639 0 -0.00465227)
0.0052        (0.972639 0 -0.00465239)
0.0053        (0.972639 0 -0.00465251)
0.0054        (0.972639 0 -0.00465262)
0.0055        (0.972639 0 -0.00465274)
0.0056        (0.972639 0 -0.00465286)
0.0057        (0.972638 0 -0.00465298)
0.0058        (0.972638 0 -0.0046531)
0.0059        (0.972638 0 -0.00465323)
0.006         (0.972638 0 -0.00465335)
0.0061        (0.972638 0 -0.00465348)
0.0062        (0.972638 0 -0.00465361)
0.0063        (0.972638 0 -0.00465374)
0.0064        (0.972638 0 -0.00465388)
0.0065        (0.972637 0 -0.00465401)
0.0066        (0.972637 0 -0.00465415)
0.0067        (0.972637 0 -0.00465429)
0.0068        (0.972637 0 -0.00465443)
0.0069        (0.972637 0 -0.00465458)
0.007         (0.972637 0 -0.00465472)
0.0071        (0.972637 0 -0.00465487)
0.0072        (0.972637 0 -0.00465503)
0.0073        (0.972636 0 -0.00465518)
0.0074        (0.972636 0 -0.00465534)
0.0075        (0.972636 0 -0.0046555)
0.0076        (0.972636 0 -0.00465566)
0.0077        (0.972636 0 -0.00465583)
0.0078        (0.972636 0 -0.004656)
0.0079        (0.972636 0 -0.00465617)
0.008         (0.972635 0 -0.00465634)
0.0081        (0.972635 0 -0.00465652)
0.0082        (0.972635 0 -0.0046567)
0.0083        (0.972635 0 -0.00465689)
0.0084        (0.972635 0 -0.00465708)
0.0085        (0.972635 0 -0.00465727)
0.0086        (0.972634 0 -0.00465746)
0.0087        (0.972634 0 -0.00465766)
0.0088        (0.972634 0 -0.00465786)
0.0089        (0.972634 0 -0.00465806)
0.009         (0.972634 0 -0.00465827)
0.0091        (0.972633 0 -0.00465849)
0.0092        (0.972633 0 -0.0046587)
0.0093        (0.972633 0 -0.00465892)
0.0094        (0.972633 0 -0.00465914)
0.0095        (0.972633 0 -0.00465937)
0.0096        (0.972632 0 -0.0046596)
0.0097        (0.972632 0 -0.00465984)
0.0098        (0.972632 0 -0.00466008)
0.0099        (0.972632 0 -0.00466032)
0.01          (0.972631 0 -0.00466057)
0.0101        (0.972631 0 -0.00466083)
0.0102        (0.972631 0 -0.00466108)
0.0103        (0.972631 0 -0.00466135)
0.0104        (0.97263 0 -0.00466161)
0.0105        (0.97263 0 -0.00466189)
0.0106        (0.97263 0 -0.00466216)
0.0107        (0.97263 0 -0.00466244)
0.0108        (0.972629 0 -0.00466273)
0.0109        (0.972629 0 -0.00466302)
0.011         (0.972629 0 -0.00466332)
0.0111        (0.972629 0 -0.00466362)
0.0112        (0.972628 0 -0.00466393)
0.0113        (0.972628 0 -0.00466424)
0.0114        (0.972628 0 -0.00466456)
0.0115        (0.972627 0 -0.00466489)
0.0116        (0.972627 0 -0.00466522)
0.0117        (0.972627 0 -0.00466556)
0.0118        (0.972626 0 -0.0046659)
0.0119        (0.972626 0 -0.00466625)
0.012         (0.972626 0 -0.0046666)
0.0121        (0.972625 0 -0.00466696)
0.0122        (0.972625 0 -0.00466733)
0.0123        (0.972625 0 -0.0046677)
0.0124        (0.972624 0 -0.00466808)
0.0125        (0.972624 0 -0.00466847)
0.0126        (0.972624 0 -0.00466886)
0.0127        (0.972623 0 -0.00466926)
0.0128        (0.972623 0 -0.00466967)
0.0129        (0.972622 0 -0.00467008)
0.013         (0.972622 0 -0.0046705)
0.0131        (0.972622 0 -0.00467093)
0.0132        (0.972621 0 -0.00467136)
0.0133        (0.972621 0 -0.0046718)
0.0134        (0.97262 0 -0.00467225)
0.0135        (0.97262 0 -0.0046727)
0.0136        (0.97262 0 -0.00467316)
0.0137        (0.972619 0 -0.00467363)
0.0138        (0.972619 0 -0.00467411)
0.0139        (0.972618 0 -0.00467459)
0.014         (0.972618 0 -0.00467508)
0.0141        (0.972617 0 -0.00467558)
0.0142        (0.972617 0 -0.00467608)
0.0143        (0.972616 0 -0.00467659)
0.0144        (0.972616 0 -0.00467711)
0.0145        (0.972615 0 -0.00467763)
0.0146        (0.972615 0 -0.00467817)
0.0147        (0.972614 0 -0.0046787)
0.0148        (0.972614 0 -0.00467925)
0.0149        (0.972613 0 -0.0046798)
0.015         (0.972613 0 -0.00468036)
0.0151        (0.972612 0 -0.00468092)
0.0152        (0.972612 0 -0.00468149)
0.0153        (0.972611 0 -0.00468207)
0.0154        (0.97261 0 -0.00468265)
0.0155        (0.97261 0 -0.00468324)
0.0156        (0.972609 0 -0.00468384)
0.0157        (0.972609 0 -0.00468444)
0.0158        (0.972608 0 -0.00468504)
0.0159        (0.972607 0 -0.00468565)
0.016         (0.972607 0 -0.00468627)
0.0161        (0.972606 0 -0.00468689)
0.0162        (0.972605 0 -0.00468751)
0.0163        (0.972605 0 -0.00468814)
0.0164        (0.972604 0 -0.00468877)
0.0165        (0.972603 0 -0.00468941)
0.0166        (0.972603 0 -0.00469005)
0.0167        (0.972602 0 -0.00469069)
0.0168        (0.972601 0 -0.00469133)
0.0169        (0.9726 0 -0.00469198)
0.017         (0.9726 0 -0.00469262)
0.0171        (0.972599 0 -0.00469327)
0.0172        (0.972598 0 -0.00469392)
0.0173        (0.972597 0 -0.00469457)
0.0174        (0.972596 0 -0.00469522)
0.0175        (0.972596 0 -0.00469587)
0.0176        (0.972595 0 -0.00469652)
0.0177        (0.972594 0 -0.00469717)
0.0178        (0.972593 0 -0.00469781)
0.0179        (0.972592 0 -0.00469845)
0.018         (0.972591 0 -0.00469909)
0.0181        (0.97259 0 -0.00469972)
0.0182        (0.972589 0 -0.00470036)
0.0183        (0.972588 0 -0.00470098)
0.0184        (0.972587 0 -0.0047016)
0.0185        (0.972586 0 -0.00470221)
0.0186        (0.972585 0 -0.00470282)
0.0187        (0.972584 0 -0.00470342)
0.0188        (0.972583 0 -0.00470401)
0.0189        (0.972582 0 -0.00470459)
0.019         (0.972581 0 -0.00470517)
0.0191        (0.97258 0 -0.00470573)
0.0192        (0.972578 0 -0.00470628)
0.0193        (0.972577 0 -0.00470682)
0.0194        (0.972576 0 -0.00470734)
0.0195        (0.972575 0 -0.00470786)
0.0196        (0.972574 0 -0.00470836)
0.0197        (0.972572 0 -0.00470884)
0.0198        (0.972571 0 -0.00470931)
0.0199        (0.97257 0 -0.00470976)
0.02          (0.972568 0 -0.0047102)
0.0201        (0.972567 0 -0.00471061)
0.0202        (0.972566 0 -0.00471101)
0.0203        (0.972564 0 -0.00471139)
0.0204        (0.972563 0 -0.00471175)
0.0205        (0.972561 0 -0.00471209)
0.0206        (0.97256 0 -0.0047124)
0.0207        (0.972558 0 -0.0047127)
0.0208        (0.972557 0 -0.00471297)
0.0209        (0.972555 0 -0.00471321)
0.021         (0.972554 0 -0.00471343)
0.0211        (0.972552 0 -0.00471362)
0.0212        (0.972551 0 -0.00471379)
0.0213        (0.972549 0 -0.00471393)
0.0214        (0.972547 0 -0.00471404)
0.0215        (0.972546 0 -0.00471413)
0.0216        (0.972544 0 -0.00471418)
0.0217        (0.972542 0 -0.0047142)
0.0218        (0.97254 0 -0.0047142)
0.0219        (0.972539 0 -0.00471416)
0.022         (0.972537 0 -0.00471409)
0.0221        (0.972535 0 -0.00471398)
0.0222        (0.972533 0 -0.00471385)
0.0223        (0.972531 0 -0.00471368)
0.0224        (0.972529 0 -0.00471347)
0.0225        (0.972527 0 -0.00471323)
0.0226        (0.972525 0 -0.00471295)
0.0227        (0.972523 0 -0.00471264)
0.0228        (0.972521 0 -0.00471229)
0.0229        (0.972519 0 -0.00471191)
0.023         (0.972517 0 -0.00471148)
0.0231        (0.972515 0 -0.00471102)
0.0232        (0.972513 0 -0.00471053)
0.0233        (0.972511 0 -0.00470999)
0.0234        (0.972509 0 -0.00470942)
0.0235        (0.972506 0 -0.0047088)
0.0236        (0.972504 0 -0.00470815)
0.0237        (0.972502 0 -0.00470746)
0.0238        (0.9725 0 -0.00470673)
0.0239        (0.972497 0 -0.00470596)
0.024         (0.972495 0 -0.00470515)
0.0241        (0.972493 0 -0.00470431)
0.0242        (0.972491 0 -0.00470342)
0.0243        (0.972488 0 -0.0047025)
0.0244        (0.972486 0 -0.00470153)
0.0245        (0.972483 0 -0.00470053)
0.0246        (0.972481 0 -0.00469949)
0.0247        (0.972479 0 -0.00469842)
0.0248        (0.972476 0 -0.0046973)
0.0249        (0.972474 0 -0.00469615)
0.025         (0.972471 0 -0.00469496)
0.0251        (0.972469 0 -0.00469374)
0.0252        (0.972466 0 -0.00469248)
0.0253        (0.972464 0 -0.00469118)
0.0254        (0.972461 0 -0.00468986)
0.0255        (0.972458 0 -0.00468849)
0.0256        (0.972456 0 -0.0046871)
0.0257        (0.972453 0 -0.00468567)
0.0258        (0.972451 0 -0.00468421)
0.0259        (0.972448 0 -0.00468272)
0.026         (0.972445 0 -0.0046812)
0.0261        (0.972443 0 -0.00467966)
0.0262        (0.97244 0 -0.00467808)
0.0263        (0.972437 0 -0.00467648)
0.0264        (0.972435 0 -0.00467485)
0.0265        (0.972432 0 -0.0046732)
0.0266        (0.972429 0 -0.00467153)
0.0267        (0.972427 0 -0.00466983)
0.0268        (0.972424 0 -0.00466811)
0.0269        (0.972421 0 -0.00466638)
0.027         (0.972419 0 -0.00466462)
0.0271        (0.972416 0 -0.00466285)
0.0272        (0.972413 0 -0.00466106)
0.0273        (0.972411 0 -0.00465926)
0.0274        (0.972408 0 -0.00465745)
0.0275        (0.972405 0 -0.00465563)
0.0276        (0.972403 0 -0.00465379)
0.0277        (0.9724 0 -0.00465195)
0.0278        (0.972397 0 -0.0046501)
0.0279        (0.972394 0 -0.00464824)
0.028         (0.972392 0 -0.00464639)
0.0281        (0.972389 0 -0.00464453)
0.0282        (0.972386 0 -0.00464267)
0.0283        (0.972384 0 -0.00464081)
0.0284        (0.972381 0 -0.00463895)
0.0285        (0.972378 0 -0.0046371)
0.0286        (0.972376 0 -0.00463525)
0.0287        (0.972373 0 -0.00463342)
0.0288        (0.972371 0 -0.00463159)
0.0289        (0.972368 0 -0.00462977)
0.029         (0.972365 0 -0.00462797)
0.0291        (0.972363 0 -0.00462618)
0.0292        (0.97236 0 -0.0046244)
0.0293        (0.972358 0 -0.00462265)
0.0294        (0.972355 0 -0.00462091)
0.0295        (0.972353 0 -0.0046192)
0.0296        (0.97235 0 -0.0046175)
0.0297        (0.972348 0 -0.00461584)
0.0298        (0.972345 0 -0.00461419)
0.0299        (0.972343 0 -0.00461258)
0.03          (0.97234 0 -0.00461099)
0.0301        (0.972338 0 -0.00460943)
0.0302        (0.972335 0 -0.00460791)
0.0303        (0.972333 0 -0.00460642)
0.0304        (0.972331 0 -0.00460496)
0.0305        (0.972328 0 -0.00460354)
0.0306        (0.972326 0 -0.00460215)
0.0307        (0.972324 0 -0.00460081)
0.0308        (0.972321 0 -0.0045995)
0.0309        (0.972319 0 -0.00459823)
0.031         (0.972317 0 -0.00459701)
0.0311        (0.972315 0 -0.00459583)
0.0312        (0.972313 0 -0.0045947)
0.0313        (0.97231 0 -0.00459361)
0.0314        (0.972308 0 -0.00459256)
0.0315        (0.972306 0 -0.00459156)
0.0316        (0.972304 0 -0.00459062)
0.0317        (0.972302 0 -0.00458972)
0.0318        (0.9723 0 -0.00458887)
0.0319        (0.972298 0 -0.00458807)
0.032         (0.972296 0 -0.00458732)
0.0321        (0.972294 0 -0.00458662)
0.0322        (0.972292 0 -0.00458598)
0.0323        (0.97229 0 -0.00458539)
0.0324        (0.972288 0 -0.00458485)
0.0325        (0.972286 0 -0.00458437)
0.0326        (0.972285 0 -0.00458394)
0.0327        (0.972283 0 -0.00458356)
0.0328        (0.972281 0 -0.00458324)
0.0329        (0.972279 0 -0.00458297)
0.033         (0.972277 0 -0.00458276)
0.0331        (0.972276 0 -0.0045826)
0.0332        (0.972274 0 -0.00458249)
0.0333        (0.972272 0 -0.00458244)
0.0334        (0.972271 0 -0.00458245)
0.0335        (0.972269 0 -0.00458251)
0.0336        (0.972267 0 -0.00458262)
0.0337        (0.972266 0 -0.00458278)
0.0338        (0.972264 0 -0.004583)
0.0339        (0.972263 0 -0.00458327)
0.034         (0.972261 0 -0.00458359)
0.0341        (0.97226 0 -0.00458396)
0.0342        (0.972258 0 -0.00458439)
0.0343        (0.972257 0 -0.00458486)
0.0344        (0.972255 0 -0.00458538)
0.0345        (0.972254 0 -0.00458595)
0.0346        (0.972253 0 -0.00458657)
0.0347        (0.972251 0 -0.00458723)
0.0348        (0.97225 0 -0.00458794)
0.0349        (0.972249 0 -0.0045887)
0.035         (0.972247 0 -0.00458949)
0.0351        (0.972246 0 -0.00459033)
0.0352        (0.972245 0 -0.00459121)
0.0353        (0.972243 0 -0.00459213)
0.0354        (0.972242 0 -0.00459309)
0.0355        (0.972241 0 -0.00459409)
0.0356        (0.97224 0 -0.00459512)
0.0357        (0.972238 0 -0.00459618)
0.0358        (0.972237 0 -0.00459728)
0.0359        (0.972236 0 -0.00459842)
0.036         (0.972235 0 -0.00459958)
0.0361        (0.972234 0 -0.00460077)
0.0362        (0.972232 0 -0.00460199)
0.0363        (0.972231 0 -0.00460324)
0.0364        (0.97223 0 -0.00460451)
0.0365        (0.972229 0 -0.0046058)
0.0366        (0.972228 0 -0.00460711)
0.0367        (0.972227 0 -0.00460845)
0.0368        (0.972226 0 -0.0046098)
0.0369        (0.972225 0 -0.00461117)
0.037         (0.972223 0 -0.00461256)
0.0371        (0.972222 0 -0.00461396)
0.0372        (0.972221 0 -0.00461537)
0.0373        (0.97222 0 -0.00461679)
0.0374        (0.972219 0 -0.00461822)
0.0375        (0.972218 0 -0.00461966)
0.0376        (0.972217 0 -0.0046211)
0.0377        (0.972216 0 -0.00462255)
0.0378        (0.972215 0 -0.004624)
0.0379        (0.972214 0 -0.00462545)
0.038         (0.972213 0 -0.00462691)
0.0381        (0.972212 0 -0.00462836)
0.0382        (0.972211 0 -0.0046298)
0.0383        (0.97221 0 -0.00463125)
0.0384        (0.972209 0 -0.00463268)
0.0385        (0.972207 0 -0.00463411)
0.0386        (0.972206 0 -0.00463553)
0.0387        (0.972205 0 -0.00463694)
0.0388        (0.972204 0 -0.00463834)
0.0389        (0.972203 0 -0.00463973)
0.039         (0.972202 0 -0.0046411)
0.0391        (0.972201 0 -0.00464246)
0.0392        (0.9722 0 -0.0046438)
0.0393        (0.972199 0 -0.00464512)
0.0394        (0.972198 0 -0.00464642)
0.0395        (0.972197 0 -0.00464771)
0.0396        (0.972196 0 -0.00464897)
0.0397        (0.972195 0 -0.00465022)
0.0398        (0.972193 0 -0.00465144)
0.0399        (0.972192 0 -0.00465263)
0.04          (0.972191 0 -0.0046538)
0.0401        (0.97219 0 -0.00465495)
0.0402        (0.972189 0 -0.00465607)
0.0403        (0.972188 0 -0.00465717)
0.0404        (0.972187 0 -0.00465824)
0.0405        (0.972186 0 -0.00465928)
0.0406        (0.972185 0 -0.00466029)
0.0407        (0.972183 0 -0.00466127)
0.0408        (0.972182 0 -0.00466223)
0.0409        (0.972181 0 -0.00466315)
0.041         (0.97218 0 -0.00466405)
0.0411        (0.972179 0 -0.00466491)
0.0412        (0.972178 0 -0.00466574)
0.0413        (0.972176 0 -0.00466655)
0.0414        (0.972175 0 -0.00466732)
0.0415        (0.972174 0 -0.00466806)
0.0416        (0.972173 0 -0.00466877)
0.0417        (0.972172 0 -0.00466945)
0.0418        (0.97217 0 -0.0046701)
0.0419        (0.972169 0 -0.00467071)
0.042         (0.972168 0 -0.0046713)
0.0421        (0.972167 0 -0.00467185)
0.0422        (0.972165 0 -0.00467238)
0.0423        (0.972164 0 -0.00467287)
0.0424        (0.972163 0 -0.00467333)
0.0425        (0.972162 0 -0.00467376)
0.0426        (0.97216 0 -0.00467417)
0.0427        (0.972159 0 -0.00467454)
0.0428        (0.972158 0 -0.00467489)
0.0429        (0.972157 0 -0.00467521)
0.043         (0.972155 0 -0.00467549)
0.0431        (0.972154 0 -0.00467576)
0.0432        (0.972153 0 -0.00467599)
0.0433        (0.972152 0 -0.0046762)
0.0434        (0.97215 0 -0.00467638)
0.0435        (0.972149 0 -0.00467654)
0.0436        (0.972148 0 -0.00467668)
0.0437        (0.972146 0 -0.00467679)
0.0438        (0.972145 0 -0.00467688)
0.0439        (0.972144 0 -0.00467694)
0.044         (0.972142 0 -0.00467698)
0.0441        (0.972141 0 -0.00467701)
0.0442        (0.97214 0 -0.00467701)
0.0443        (0.972138 0 -0.004677)
0.0444        (0.972137 0 -0.00467696)
0.0445        (0.972136 0 -0.00467691)
0.0446        (0.972134 0 -0.00467684)
0.0447        (0.972133 0 -0.00467676)
0.0448        (0.972132 0 -0.00467666)
0.0449        (0.972131 0 -0.00467654)
0.045         (0.972129 0 -0.00467641)
0.0451        (0.972128 0 -0.00467627)
0.0452        (0.972127 0 -0.00467612)
0.0453        (0.972125 0 -0.00467596)
0.0454        (0.972124 0 -0.00467578)
0.0455        (0.972123 0 -0.0046756)
0.0456        (0.972121 0 -0.00467541)
0.0457        (0.97212 0 -0.00467521)
0.0458        (0.972119 0 -0.00467501)
0.0459        (0.972117 0 -0.0046748)
0.046         (0.972116 0 -0.00467458)
0.0461        (0.972115 0 -0.00467436)
0.0462        (0.972113 0 -0.00467413)
0.0463        (0.972112 0 -0.00467391)
0.0464        (0.972111 0 -0.00467368)
0.0465        (0.972109 0 -0.00467344)
0.0466        (0.972108 0 -0.00467321)
0.0467        (0.972107 0 -0.00467298)
0.0468        (0.972105 0 -0.00467275)
0.0469        (0.972104 0 -0.00467252)
0.047         (0.972103 0 -0.00467229)
0.0471        (0.972101 0 -0.00467207)
0.0472        (0.9721 0 -0.00467184)
0.0473        (0.972099 0 -0.00467162)
0.0474        (0.972097 0 -0.00467141)
0.0475        (0.972096 0 -0.0046712)
0.0476        (0.972095 0 -0.004671)
0.0477        (0.972093 0 -0.0046708)
0.0478        (0.972092 0 -0.00467061)
0.0479        (0.972091 0 -0.00467042)
0.048         (0.97209 0 -0.00467024)
0.0481        (0.972088 0 -0.00467007)
0.0482        (0.972087 0 -0.00466991)
0.0483        (0.972086 0 -0.00466975)
0.0484        (0.972084 0 -0.00466961)
0.0485        (0.972083 0 -0.00466947)
0.0486        (0.972082 0 -0.00466934)
0.0487        (0.972081 0 -0.00466922)
0.0488        (0.972079 0 -0.00466911)
0.0489        (0.972078 0 -0.00466901)
0.049         (0.972077 0 -0.00466892)
0.0491        (0.972076 0 -0.00466884)
0.0492        (0.972074 0 -0.00466877)
0.0493        (0.972073 0 -0.00466871)
0.0494        (0.972072 0 -0.00466866)
0.0495        (0.97207 0 -0.00466862)
0.0496        (0.972069 0 -0.00466859)
0.0497        (0.972068 0 -0.00466857)
0.0498        (0.972067 0 -0.00466856)
0.0499        (0.972065 0 -0.00466856)
0.05          (0.972064 0 -0.00466858)
0.0501        (0.972063 0 -0.0046686)
0.0502        (0.972062 0 -0.00466863)
0.0503        (0.97206 0 -0.00466867)
0.0504        (0.972059 0 -0.00466872)
0.0505        (0.972058 0 -0.00466879)
0.0506        (0.972057 0 -0.00466886)
0.0507        (0.972055 0 -0.00466894)
0.0508        (0.972054 0 -0.00466903)
0.0509        (0.972053 0 -0.00466912)
0.051         (0.972052 0 -0.00466923)
0.0511        (0.972051 0 -0.00466935)
0.0512        (0.972049 0 -0.00466947)
0.0513        (0.972048 0 -0.0046696)
0.0514        (0.972047 0 -0.00466974)
0.0515        (0.972046 0 -0.00466989)
0.0516        (0.972044 0 -0.00467004)
0.0517        (0.972043 0 -0.0046702)
0.0518        (0.972042 0 -0.00467037)
0.0519        (0.972041 0 -0.00467054)
0.052         (0.972039 0 -0.00467072)
0.0521        (0.972038 0 -0.0046709)
0.0522        (0.972037 0 -0.00467109)
0.0523        (0.972036 0 -0.00467129)
0.0524        (0.972035 0 -0.00467149)
0.0525        (0.972033 0 -0.00467169)
0.0526        (0.972032 0 -0.0046719)
0.0527        (0.972031 0 -0.00467211)
0.0528        (0.97203 0 -0.00467233)
0.0529        (0.972028 0 -0.00467255)
0.053         (0.972027 0 -0.00467277)
0.0531        (0.972026 0 -0.00467299)
0.0532        (0.972025 0 -0.00467322)
0.0533        (0.972023 0 -0.00467345)
0.0534        (0.972022 0 -0.00467368)
0.0535        (0.972021 0 -0.00467391)
0.0536        (0.97202 0 -0.00467414)
0.0537        (0.972019 0 -0.00467437)
0.0538        (0.972017 0 -0.0046746)
0.0539        (0.972016 0 -0.00467484)
0.054         (0.972015 0 -0.00467507)
0.0541        (0.972014 0 -0.0046753)
0.0542        (0.972012 0 -0.00467554)
0.0543        (0.972011 0 -0.00467577)
0.0544        (0.97201 0 -0.004676)
0.0545        (0.972009 0 -0.00467623)
0.0546        (0.972007 0 -0.00467645)
0.0547        (0.972006 0 -0.00467668)
0.0548        (0.972005 0 -0.00467691)
0.0549        (0.972004 0 -0.00467713)
0.055         (0.972002 0 -0.00467735)
0.0551        (0.972001 0 -0.00467757)
0.0552        (0.972 0 -0.00467778)
0.0553        (0.971999 0 -0.004678)
0.0554        (0.971997 0 -0.00467821)
0.0555        (0.971996 0 -0.00467841)
0.0556        (0.971995 0 -0.00467862)
0.0557        (0.971994 0 -0.00467882)
0.0558        (0.971992 0 -0.00467902)
0.0559        (0.971991 0 -0.00467922)
0.056         (0.97199 0 -0.00467941)
0.0561        (0.971989 0 -0.0046796)
0.0562        (0.971987 0 -0.00467978)
0.0563        (0.971986 0 -0.00467997)
0.0564        (0.971985 0 -0.00468015)
0.0565        (0.971984 0 -0.00468032)
0.0566        (0.971982 0 -0.0046805)
0.0567        (0.971981 0 -0.00468067)
0.0568        (0.97198 0 -0.00468083)
0.0569        (0.971979 0 -0.004681)
0.057         (0.971977 0 -0.00468116)
0.0571        (0.971976 0 -0.00468132)
0.0572        (0.971975 0 -0.00468147)
0.0573        (0.971974 0 -0.00468162)
0.0574        (0.971972 0 -0.00468177)
0.0575        (0.971971 0 -0.00468192)
0.0576        (0.97197 0 -0.00468206)
0.0577        (0.971968 0 -0.0046822)
0.0578        (0.971967 0 -0.00468234)
0.0579        (0.971966 0 -0.00468248)
0.058         (0.971965 0 -0.00468261)
0.0581        (0.971963 0 -0.00468274)
0.0582        (0.971962 0 -0.00468287)
0.0583        (0.971961 0 -0.004683)
0.0584        (0.971959 0 -0.00468312)
0.0585        (0.971958 0 -0.00468325)
0.0586        (0.971957 0 -0.00468337)
0.0587        (0.971956 0 -0.00468349)
0.0588        (0.971954 0 -0.00468361)
0.0589        (0.971953 0 -0.00468373)
0.059         (0.971952 0 -0.00468385)
0.0591        (0.97195 0 -0.00468397)
0.0592        (0.971949 0 -0.00468408)
0.0593        (0.971948 0 -0.0046842)
0.0594        (0.971947 0 -0.00468432)
0.0595        (0.971945 0 -0.00468443)
0.0596        (0.971944 0 -0.00468455)
0.0597        (0.971943 0 -0.00468467)
0.0598        (0.971941 0 -0.00468478)
0.0599        (0.97194 0 -0.0046849)
0.06          (0.971939 0 -0.00468502)
0.0601        (0.971937 0 -0.00468513)
0.0602        (0.971936 0 -0.00468525)
0.0603        (0.971935 0 -0.00468537)
0.0604        (0.971933 0 -0.0046855)
0.0605        (0.971932 0 -0.00468562)
0.0606        (0.971931 0 -0.00468574)
0.0607        (0.97193 0 -0.00468587)
0.0608        (0.971928 0 -0.00468599)
0.0609        (0.971927 0 -0.00468612)
0.061         (0.971926 0 -0.00468625)
0.0611        (0.971924 0 -0.00468639)
0.0612        (0.971923 0 -0.00468652)
0.0613        (0.971922 0 -0.00468666)
0.0614        (0.97192 0 -0.0046868)
0.0615        (0.971919 0 -0.00468694)
0.0616        (0.971918 0 -0.00468709)
0.0617        (0.971916 0 -0.00468723)
0.0618        (0.971915 0 -0.00468739)
0.0619        (0.971914 0 -0.00468754)
0.062         (0.971912 0 -0.00468769)
0.0621        (0.971911 0 -0.00468785)
0.0622        (0.97191 0 -0.00468801)
0.0623        (0.971908 0 -0.00468818)
0.0624        (0.971907 0 -0.00468835)
0.0625        (0.971906 0 -0.00468852)
0.0626        (0.971904 0 -0.00468869)
0.0627        (0.971903 0 -0.00468887)
0.0628        (0.971901 0 -0.00468905)
0.0629        (0.9719 0 -0.00468923)
0.063         (0.971899 0 -0.00468942)
0.0631        (0.971897 0 -0.00468961)
0.0632        (0.971896 0 -0.0046898)
0.0633        (0.971895 0 -0.00469)
0.0634        (0.971893 0 -0.0046902)
0.0635        (0.971892 0 -0.00469041)
0.0636        (0.971891 0 -0.00469061)
0.0637        (0.971889 0 -0.00469082)
0.0638        (0.971888 0 -0.00469104)
0.0639        (0.971886 0 -0.00469126)
0.064         (0.971885 0 -0.00469148)
0.0641        (0.971884 0 -0.0046917)
0.0642        (0.971882 0 -0.00469193)
0.0643        (0.971881 0 -0.00469216)
0.0644        (0.971879 0 -0.00469239)
0.0645        (0.971878 0 -0.00469263)
0.0646        (0.971877 0 -0.00469287)
0.0647        (0.971875 0 -0.00469311)
0.0648        (0.971874 0 -0.00469336)
0.0649        (0.971872 0 -0.00469361)
0.065         (0.971871 0 -0.00469386)
0.0651        (0.971869 0 -0.00469411)
0.0652        (0.971868 0 -0.00469437)
0.0653        (0.971867 0 -0.00469463)
0.0654        (0.971865 0 -0.0046949)
0.0655        (0.971864 0 -0.00469516)
0.0656        (0.971862 0 -0.00469543)
0.0657        (0.971861 0 -0.0046957)
0.0658        (0.971859 0 -0.00469598)
0.0659        (0.971858 0 -0.00469626)
0.066         (0.971857 0 -0.00469653)
0.0661        (0.971855 0 -0.00469682)
0.0662        (0.971854 0 -0.0046971)
0.0663        (0.971852 0 -0.00469739)
0.0664        (0.971851 0 -0.00469768)
0.0665        (0.971849 0 -0.00469797)
0.0666        (0.971848 0 -0.00469826)
0.0667        (0.971846 0 -0.00469856)
0.0668        (0.971845 0 -0.00469885)
0.0669        (0.971843 0 -0.00469915)
0.067         (0.971842 0 -0.00469946)
0.0671        (0.97184 0 -0.00469976)
0.0672        (0.971839 0 -0.00470006)
0.0673        (0.971837 0 -0.00470037)
0.0674        (0.971836 0 -0.00470068)
0.0675        (0.971834 0 -0.00470099)
0.0676        (0.971833 0 -0.00470131)
0.0677        (0.971831 0 -0.00470162)
0.0678        (0.97183 0 -0.00470194)
0.0679        (0.971828 0 -0.00470225)
0.068         (0.971826 0 -0.00470257)
0.0681        (0.971825 0 -0.0047029)
0.0682        (0.971823 0 -0.00470322)
0.0683        (0.971822 0 -0.00470354)
0.0684        (0.97182 0 -0.00470387)
0.0685        (0.971819 0 -0.0047042)
0.0686        (0.971817 0 -0.00470453)
0.0687        (0.971815 0 -0.00470486)
0.0688        (0.971814 0 -0.00470519)
0.0689        (0.971812 0 -0.00470552)
0.069         (0.971811 0 -0.00470586)
0.0691        (0.971809 0 -0.00470619)
0.0692        (0.971808 0 -0.00470653)
0.0693        (0.971806 0 -0.00470687)
0.0694        (0.971804 0 -0.00470721)
0.0695        (0.971803 0 -0.00470756)
0.0696        (0.971801 0 -0.0047079)
0.0697        (0.971799 0 -0.00470825)
0.0698        (0.971798 0 -0.00470859)
0.0699        (0.971796 0 -0.00470894)
0.07          (0.971794 0 -0.00470929)
0.0701        (0.971793 0 -0.00470964)
0.0702        (0.971791 0 -0.00471)
0.0703        (0.971789 0 -0.00471035)
0.0704        (0.971788 0 -0.00471071)
0.0705        (0.971786 0 -0.00471107)
0.0706        (0.971784 0 -0.00471143)
0.0707        (0.971783 0 -0.00471179)
0.0708        (0.971781 0 -0.00471216)
0.0709        (0.971779 0 -0.00471252)
0.071         (0.971778 0 -0.00471289)
0.0711        (0.971776 0 -0.00471326)
0.0712        (0.971774 0 -0.00471363)
0.0713        (0.971772 0 -0.004714)
0.0714        (0.971771 0 -0.00471438)
0.0715        (0.971769 0 -0.00471476)
0.0716        (0.971767 0 -0.00471514)
0.0717        (0.971765 0 -0.00471552)
0.0718        (0.971764 0 -0.0047159)
0.0719        (0.971762 0 -0.00471629)
0.072         (0.97176 0 -0.00471668)
0.0721        (0.971758 0 -0.00471707)
0.0722        (0.971757 0 -0.00471746)
0.0723        (0.971755 0 -0.00471786)
0.0724        (0.971753 0 -0.00471825)
0.0725        (0.971751 0 -0.00471865)
0.0726        (0.971749 0 -0.00471906)
0.0727        (0.971748 0 -0.00471946)
0.0728        (0.971746 0 -0.00471987)
0.0729        (0.971744 0 -0.00472028)
0.073         (0.971742 0 -0.00472069)
0.0731        (0.97174 0 -0.00472111)
0.0732        (0.971738 0 -0.00472153)
0.0733        (0.971736 0 -0.00472195)
0.0734        (0.971735 0 -0.00472237)
0.0735        (0.971733 0 -0.0047228)
0.0736        (0.971731 0 -0.00472323)
0.0737        (0.971729 0 -0.00472367)
0.0738        (0.971727 0 -0.0047241)
0.0739        (0.971725 0 -0.00472454)
0.074         (0.971723 0 -0.00472499)
0.0741        (0.971721 0 -0.00472543)
0.0742        (0.971719 0 -0.00472588)
0.0743        (0.971717 0 -0.00472633)
0.0744        (0.971715 0 -0.00472679)
0.0745        (0.971714 0 -0.00472725)
0.0746        (0.971712 0 -0.00472771)
0.0747        (0.97171 0 -0.00472818)
0.0748        (0.971708 0 -0.00472865)
0.0749        (0.971706 0 -0.00472912)
0.075         (0.971704 0 -0.0047296)
0.0751        (0.971702 0 -0.00473008)
0.0752        (0.9717 0 -0.00473056)
0.0753        (0.971698 0 -0.00473105)
0.0754        (0.971696 0 -0.00473154)
0.0755        (0.971694 0 -0.00473203)
0.0756        (0.971691 0 -0.00473253)
0.0757        (0.971689 0 -0.00473303)
0.0758        (0.971687 0 -0.00473354)
0.0759        (0.971685 0 -0.00473405)
0.076         (0.971683 0 -0.00473456)
0.0761        (0.971681 0 -0.00473508)
0.0762        (0.971679 0 -0.0047356)
0.0763        (0.971677 0 -0.00473613)
0.0764        (0.971675 0 -0.00473665)
0.0765        (0.971673 0 -0.00473719)
0.0766        (0.97167 0 -0.00473772)
0.0767        (0.971668 0 -0.00473827)
0.0768        (0.971666 0 -0.00473881)
0.0769        (0.971664 0 -0.00473936)
0.077         (0.971662 0 -0.00473991)
0.0771        (0.97166 0 -0.00474047)
0.0772        (0.971657 0 -0.00474103)