/*--------------------------------*- C++ -*----------------------------------*\
| =========                 |                                                 |
| \\      /  F ield         | OpenFOAM: The Open Source CFD Toolbox           |
|  \\    /   O peration     | Version:  2412                                  |
|   \\  /    A nd           | Website:  www.openfoam.com                      |
|    \\/     M anipulation  |                                                 |
\*---------------------------------------------------------------------------*/
FoamFile
{
    version     2.0;
    format      ascii;
    arch        "LSB;label=32;scalar=64";
    class       volScalarField;
    location    "0.29062";
    object      p;
}
// * * * * * * * * * * * * * * * * * * * * * * * * * * * * * * * * * * * * * //

dimensions      [0 2 -2 0 0 0 0];

internalField   nonuniform List<scalar> 
257400
(
-0.536692
-0.782966
-0.964563
-1.08546
-1.15024
-1.17527
-1.17386
-1.15535
-1.1264
-1.09553
-1.06412
-1.03425
-1.00531
-0.978786
-0.954051
-0.93066
-0.909003
-0.888414
-0.869643
-0.851828
-0.835045
-0.819364
-0.804669
-0.790865
-0.777607
-0.765088
-0.753261
-0.742034
-0.73121
-0.720928
-0.711139
-0.701794
-0.692672
-0.684033
-0.675728
-0.667744
-0.659994
-0.652543
-0.645368
-0.638442
-0.631731
-0.625211
-0.618913
-0.612803
-0.606859
-0.601116
-0.59557
-0.590132
-0.584851
-0.579715
-0.574709
-0.569838
-0.565084
-0.560443
-0.555926
-0.551517
-0.5472
-0.543002
-0.538884
-0.534883
-0.530945
-0.527099
-0.523354
-0.519675
-0.516058
-0.512532
-0.509089
-0.505682
-0.50235
-0.499105
-0.495895
-0.492748
-0.489675
-0.486635
-0.483626
-0.480714
-0.477864
-0.475049
-0.472294
-0.469635
-0.449738
-0.644912
-0.812507
-0.950617
-1.04886
-1.10824
-1.13492
-1.13974
-1.12691
-1.10506
-1.07866
-1.05125
-1.02304
-0.996292
-0.97111
-0.947122
-0.92481
-0.903414
-0.883872
-0.865388
-0.847912
-0.831529
-0.816179
-0.801876
-0.788114
-0.775081
-0.762779
-0.751183
-0.739955
-0.729274
-0.719113
-0.70947
-0.700087
-0.691117
-0.682519
-0.6743
-0.666301
-0.658603
-0.651189
-0.644048
-0.637155
-0.630429
-0.623943
-0.617692
-0.611548
-0.605454
-0.5998
-0.594216
-0.588779
-0.583513
-0.578363
-0.57335
-0.568469
-0.5637
-0.559062
-0.554532
-0.550099
-0.545769
-0.541542
-0.537406
-0.53337
-0.529412
-0.525541
-0.52176
-0.518054
-0.51442
-0.510866
-0.507383
-0.503965
-0.500617
-0.497332
-0.494106
-0.490944
-0.487839
-0.484785
-0.481793
-0.478866
-0.475998
-0.473189
-0.470453
-0.317699
-0.488694
-0.651126
-0.801002
-0.924433
-1.01411
-1.07
-1.09988
-1.1062
-1.09718
-1.07854
-1.05574
-1.03033
-1.00493
-0.980375
-0.956632
-0.934313
-0.9128
-0.892876
-0.874064
-0.856252
-0.839466
-0.823673
-0.808941
-0.794858
-0.78148
-0.768815
-0.756889
-0.745401
-0.734439
-0.723993
-0.714091
-0.704491
-0.695293
-0.686474
-0.678054
-0.669883
-0.662008
-0.65442
-0.647111
-0.64007
-0.633203
-0.626564
-0.620172
-0.613976
-0.607905
-0.602063
-0.596369
-0.59081
-0.585447
-0.580205
-0.575101
-0.570161
-0.565264
-0.560531
-0.555938
-0.551451
-0.547043
-0.54277
-0.538568
-0.534481
-0.530473
-0.526548
-0.52272
-0.518971
-0.515289
-0.511685
-0.508162
-0.504702
-0.501309
-0.497986
-0.494722
-0.491517
-0.488373
-0.485286
-0.482253
-0.479282
-0.476371
-0.473522
-0.470742
-0.21269
-0.355447
-0.499334
-0.643951
-0.777619
-0.889865
-0.973532
-1.02939
-1.0602
-1.07092
-1.06626
-1.05262
-1.03287
-1.01071
-0.987957
-0.965153
-0.943314
-0.921912
-0.901914
-0.882926
-0.864865
-0.847772
-0.831635
-0.816583
-0.802181
-0.788483
-0.775501
-0.763298
-0.751532
-0.740297
-0.729587
-0.719456
-0.709633
-0.700212
-0.691175
-0.682565
-0.674209
-0.666151
-0.658385
-0.650911
-0.643723
-0.636706
-0.629917
-0.623381
-0.61704
-0.610817
-0.604857
-0.599058
-0.593377
-0.587908
-0.582559
-0.577345
-0.572298
-0.567354
-0.562535
-0.55784
-0.553268
-0.548762
-0.544417
-0.540123
-0.535971
-0.531897
-0.527873
-0.523965
-0.520162
-0.516415
-0.512742
-0.509165
-0.50565
-0.502193
-0.498819
-0.495504
-0.492243
-0.489053
-0.485926
-0.482841
-0.479815
-0.476855
-0.473953
-0.471111
-0.132808
-0.248211
-0.376512
-0.506142
-0.634816
-0.754522
-0.855652
-0.934033
-0.988185
-1.02084
-1.03448
-1.03459
-1.02447
-1.00856
-0.989734
-0.969326
-0.948967
-0.928391
-0.90882
-0.890007
-0.871968
-0.854778
-0.838453
-0.823198
-0.808572
-0.794632
-0.78139
-0.768957
-0.756959
-0.745488
-0.734541
-0.724207
-0.714181
-0.704557
-0.695321
-0.686541
-0.678016
-0.66979
-0.661861
-0.654233
-0.646912
-0.639755
-0.632829
-0.626172
-0.619722
-0.613381
-0.607314
-0.601412
-0.595618
-0.590054
-0.584611
-0.5793
-0.574167
-0.569134
-0.564229
-0.559456
-0.554817
-0.55023
-0.545819
-0.541451
-0.537232
-0.533093
-0.529017
-0.525057
-0.521194
-0.517386
-0.513649
-0.510025
-0.506461
-0.502948
-0.49953
-0.496169
-0.492855
-0.489622
-0.486459
-0.483324
-0.480246
-0.477237
-0.474281
-0.471375
-0.0752628
-0.173906
-0.283808
-0.395735
-0.512182
-0.627583
-0.733832
-0.825168
-0.897132
-0.948883
-0.981527
-0.998221
-1.00138
-0.995142
-0.983029
-0.967143
-0.949788
-0.931167
-0.912821
-0.894772
-0.877205
-0.860262
-0.844013
-0.828751
-0.814064
-0.800017
-0.786622
-0.774041
-0.761884
-0.750242
-0.739109
-0.728612
-0.718421
-0.708629
-0.69922
-0.69029
-0.681617
-0.673242
-0.665166
-0.657397
-0.649954
-0.642671
-0.635616
-0.628842
-0.622288
-0.615829
-0.609658
-0.603662
-0.597761
-0.592105
-0.586572
-0.581169
-0.575955
-0.570841
-0.565856
-0.561006
-0.5563
-0.551632
-0.54716
-0.542717
-0.538438
-0.534238
-0.530095
-0.526073
-0.522158
-0.518295
-0.514499
-0.510828
-0.507216
-0.503649
-0.500185
-0.496782
-0.493421
-0.490143
-0.486944
-0.483762
-0.480632
-0.477574
-0.474562
-0.471584
-0.0328818
-0.118465
-0.21428
-0.310554
-0.413001
-0.518021
-0.620638
-0.715438
-0.797219
-0.86293
-0.911339
-0.944031
-0.961946
-0.967855
-0.965085
-0.956088
-0.943637
-0.928474
-0.912473
-0.89603
-0.879576
-0.86338
-0.847598
-0.832626
-0.818118
-0.804163
-0.790775
-0.778169
-0.765961
-0.754242
-0.743002
-0.732401
-0.722103
-0.712194
-0.702656
-0.69361
-0.684823
-0.67633
-0.668134
-0.660246
-0.6527
-0.645312
-0.638146
-0.631269
-0.624627
-0.618065
-0.611802
-0.605723
-0.599726
-0.593988
-0.588375
-0.582888
-0.5776
-0.572412
-0.567354
-0.562433
-0.557668
-0.552924
-0.548395
-0.543884
-0.539549
-0.535294
-0.531088
-0.52701
-0.523048
-0.519133
-0.51528
-0.511564
-0.507909
-0.50429
-0.500784
-0.497338
-0.493931
-0.490611
-0.487377
-0.48415
-0.48097
-0.477864
-0.474799
-0.471759
-0.000433514
-0.0740438
-0.153078
-0.243915
-0.333867
-0.427024
-0.521846
-0.613764
-0.698231
-0.771533
-0.831002
-0.876353
-0.907778
-0.926352
-0.934457
-0.934269
-0.928574
-0.91852
-0.906205
-0.892439
-0.877942
-0.86316
-0.848378
-0.834105
-0.820114
-0.806531
-0.793381
-0.780931
-0.768828
-0.757169
-0.745936
-0.735325
-0.725002
-0.715051
-0.705449
-0.696339
-0.687485
-0.678918
-0.670644
-0.662671
-0.65505
-0.647586
-0.640337
-0.63338
-0.626669
-0.620026
-0.613685
-0.60754
-0.601465
-0.595657
-0.589977
-0.584417
-0.579067
-0.573816
-0.568694
-0.56371
-0.558894
-0.554084
-0.549506
-0.544933
-0.540547
-0.536244
-0.531984
-0.527854
-0.523848
-0.519887
-0.515982
-0.512225
-0.50853
-0.504864
-0.501317
-0.497833
-0.494382
-0.491021
-0.487755
-0.484485
-0.481258
-0.478107
-0.474994
-0.471886
0.0245395
-0.0409249
-0.112125
-0.191383
-0.269845
-0.352573
-0.438378
-0.524119
-0.606482
-0.681922
-0.747399
-0.801461
-0.843288
-0.873003
-0.891876
-0.90131
-0.903619
-0.900058
-0.892729
-0.882779
-0.871193
-0.858609
-0.84547
-0.832411
-0.819361
-0.806506
-0.79389
-0.781834
-0.770043
-0.758624
-0.747554
-0.737055
-0.72682
-0.716929
-0.707352
-0.69825
-0.689397
-0.680818
-0.672521
-0.664512
-0.656856
-0.649355
-0.642062
-0.635054
-0.628303
-0.62161
-0.615215
-0.609027
-0.602897
-0.597036
-0.591309
-0.585695
-0.580296
-0.574997
-0.569826
-0.564791
-0.559935
-0.555071
-0.550453
-0.545832
-0.541402
-0.53706
-0.532754
-0.52858
-0.524537
-0.520538
-0.516588
-0.512793
-0.509064
-0.505357
-0.501773
-0.498256
-0.494765
-0.491366
-0.488069
-0.484761
-0.48149
-0.478298
-0.475143
-0.471967
0.0439693
-0.0147924
-0.0782862
-0.149501
-0.21887
-0.292309
-0.368899
-0.447246
-0.524904
-0.598784
-0.666095
-0.724909
-0.773813
-0.811947
-0.840006
-0.858575
-0.869173
-0.872849
-0.871451
-0.866285
-0.858508
-0.848915
-0.838103
-0.826829
-0.815201
-0.80348
-0.791746
-0.780369
-0.769138
-0.758174
-0.747456
-0.737226
-0.727219
-0.717514
-0.708076
-0.699076
-0.690309
-0.681796
-0.673549
-0.665568
-0.65793
-0.650446
-0.643158
-0.636142
-0.629388
-0.622684
-0.616268
-0.610065
-0.603912
-0.598025
-0.592274
-0.58663
-0.581203
-0.575875
-0.570675
-0.565606
-0.560727
-0.555826
-0.551181
-0.546526
-0.542064
-0.537695
-0.533356
-0.529148
-0.525077
-0.52105
-0.517064
-0.51324
-0.509485
-0.505744
-0.502129
-0.498583
-0.49506
-0.491627
-0.488303
-0.484962
-0.481653
-0.478424
-0.475237
-0.471997
0.0593855
0.00661144
-0.0492151
-0.108891
-0.177148
-0.242932
-0.311112
-0.38216
-0.454033
-0.524272
-0.590557
-0.650903
-0.703735
-0.747612
-0.782525
-0.808711
-0.826923
-0.837788
-0.842693
-0.842904
-0.839604
-0.833666
-0.825806
-0.816869
-0.807148
-0.796977
-0.78649
-0.776103
-0.765703
-0.755429
-0.745273
-0.735492
-0.725873
-0.716498
-0.707329
-0.698541
-0.689962
-0.68161
-0.673498
-0.665621
-0.658067
-0.650662
-0.643441
-0.636469
-0.629757
-0.623093
-0.616696
-0.610516
-0.604379
-0.598497
-0.592755
-0.587112
-0.581682
-0.576353
-0.571149
-0.566068
-0.561184
-0.55627
-0.551614
-0.546946
-0.542467
-0.538086
-0.533731
-0.529503
-0.525416
-0.521374
-0.517366
-0.513521
-0.509751
-0.505987
-0.50235
-0.498784
-0.495236
-0.491776
-0.488432
-0.485066
-0.481725
-0.478464
-0.475257
-0.471959
0.0717598
0.0239019
-0.0268849
-0.0818832
-0.142857
-0.201556
-0.262976
-0.327239
-0.393107
-0.458786
-0.52236
-0.582012
-0.636253
-0.683421
-0.723028
-0.75487
-0.779326
-0.796635
-0.807616
-0.813322
-0.814819
-0.812964
-0.80852
-0.802381
-0.794989
-0.78675
-0.777856
-0.768761
-0.759459
-0.750112
-0.740731
-0.731583
-0.722521
-0.713624
-0.704862
-0.696407
-0.688127
-0.680037
-0.672152
-0.664466
-0.65707
-0.649816
-0.642728
-0.635862
-0.629246
-0.622675
-0.616348
-0.610232
-0.604157
-0.59832
-0.592622
-0.587017
-0.581617
-0.576316
-0.571138
-0.566073
-0.561209
-0.556309
-0.551664
-0.547006
-0.542531
-0.538157
-0.533806
-0.529577
-0.525488
-0.521448
-0.517435
-0.513583
-0.509809
-0.506037
-0.502388
-0.498814
-0.495254
-0.491777
-0.48842
-0.485038
-0.481676
-0.47839
-0.475179
-0.471832
0.0817157
0.0379227
-0.00845034
-0.0580593
-0.113232
-0.167433
-0.222967
-0.280846
-0.340969
-0.401831
-0.461836
-0.51943
-0.5733
-0.62179
-0.664165
-0.699924
-0.729014
-0.751558
-0.7679
-0.778777
-0.785025
-0.787391
-0.786615
-0.783577
-0.77883
-0.772825
-0.765813
-0.758276
-0.750313
-0.742107
-0.733699
-0.725361
-0.717013
-0.708739
-0.700518
-0.692515
-0.684643
-0.676916
-0.669352
-0.661943
-0.654784
-0.647753
-0.640868
-0.634173
-0.627707
-0.621289
-0.615083
-0.609079
-0.603114
-0.597366
-0.591753
-0.586224
-0.58089
-0.575651
-0.570533
-0.565515
-0.560699
-0.555844
-0.551234
-0.546615
-0.542167
-0.537821
-0.533499
-0.52929
-0.525219
-0.521199
-0.517201
-0.513358
-0.509597
-0.505834
-0.502189
-0.498619
-0.495062
-0.491581
-0.488222
-0.484837
-0.481469
-0.478167
-0.474966
-0.471583
0.0897854
0.0495106
0.00724001
-0.0371294
-0.0843738
-0.138453
-0.189093
-0.24142
-0.296328
-0.352462
-0.408592
-0.463403
-0.515769
-0.564163
-0.60776
-0.645911
-0.67826
-0.704705
-0.725389
-0.740777
-0.751415
-0.75787
-0.760786
-0.760978
-0.759052
-0.755482
-0.750564
-0.744793
-0.738361
-0.731474
-0.724206
-0.716832
-0.709338
-0.701814
-0.694252
-0.686811
-0.679446
-0.672176
-0.665018
-0.657969
-0.65112
-0.644381
-0.637765
-0.631303
-0.625045
-0.618833
-0.612802
-0.606955
-0.601148
-0.595532
-0.590044
-0.584634
-0.579402
-0.574261
-0.569237
-0.564301
-0.55956
-0.554782
-0.550236
-0.545683
-0.541289
-0.536996
-0.532727
-0.528563
-0.52453
-0.520552
-0.516593
-0.512778
-0.509047
-0.505313
-0.501689
-0.49814
-0.494604
-0.491135
-0.487788
-0.484414
-0.481057
-0.477752
-0.474579
-0.471176
0.0963639
0.059152
0.0203025
-0.0206676
-0.0651128
-0.115188
-0.16055
-0.208218
-0.258183
-0.309753
-0.36198
-0.41367
-0.463868
-0.511221
-0.554901
-0.594212
-0.628617
-0.657854
-0.681805
-0.700846
-0.715288
-0.725479
-0.731915
-0.735297
-0.736233
-0.735188
-0.732485
-0.728619
-0.723856
-0.718422
-0.712424
-0.706137
-0.699611
-0.69294
-0.686137
-0.679349
-0.672577
-0.665842
-0.659165
-0.652545
-0.646072
-0.639686
-0.633397
-0.627223
-0.621222
-0.615266
-0.609457
-0.60381
-0.598204
-0.59276
-0.587436
-0.582182
-0.577088
-0.572078
-0.567181
-0.562359
-0.557722
-0.553053
-0.548596
-0.544139
-0.539825
-0.535609
-0.53142
-0.527325
-0.523353
-0.519438
-0.51554
-0.511774
-0.508093
-0.504409
-0.500826
-0.497316
-0.493819
-0.490382
-0.487063
-0.483718
-0.480391
-0.477098
-0.47397
-0.470568
0.10173
0.0671618
0.0312027
-0.00639858
-0.0457586
-0.0871647
-0.135583
-0.179863
-0.225305
-0.272725
-0.321203
-0.369695
-0.417395
-0.463124
-0.506102
-0.545646
-0.581128
-0.61219
-0.638533
-0.660352
-0.677876
-0.691298
-0.70093
-0.707326
-0.711043
-0.712511
-0.712058
-0.710167
-0.707155
-0.70326
-0.698622
-0.693514
-0.68804
-0.682303
-0.676334
-0.670275
-0.664162
-0.658026
-0.651887
-0.645753
-0.639712
-0.633728
-0.62781
-0.621972
-0.61627
-0.61061
-0.605063
-0.599653
-0.594283
-0.589047
-0.583918
-0.578853
-0.573927
-0.569078
-0.564335
-0.559657
-0.555149
-0.550617
-0.546274
-0.541938
-0.537728
-0.533612
-0.529526
-0.525524
-0.521635
-0.517804
-0.51399
-0.510294
-0.506682
-0.503068
-0.499546
-0.496094
-0.492656
-0.489269
-0.485996
-0.482698
-0.479423
-0.476159
-0.473092
-0.469715
0.10611
0.0738696
0.0404863
0.0057979
-0.030794
-0.0705862
-0.115457
-0.155434
-0.19726
-0.240748
-0.285577
-0.330906
-0.375969
-0.419735
-0.461495
-0.500608
-0.536415
-0.568507
-0.596472
-0.620362
-0.640261
-0.656313
-0.66871
-0.677836
-0.684157
-0.688042
-0.689802
-0.689891
-0.688657
-0.686346
-0.683121
-0.679253
-0.67489
-0.670143
-0.665063
-0.659788
-0.654386
-0.648895
-0.64334
-0.637736
-0.632167
-0.626624
-0.621114
-0.615647
-0.610278
-0.604943
-0.59969
-0.594545
-0.589437
-0.584437
-0.579529
-0.574677
-0.569945
-0.565281
-0.560714
-0.556203
-0.551844
-0.547472
-0.543264
-0.539069
-0.534985
-0.530988
-0.527024
-0.523136
-0.519348
-0.515619
-0.511909
-0.508303
-0.504776
-0.501253
-0.49781
-0.494433
-0.491073
-0.487755
-0.484545
-0.481312
-0.478109
-0.474893
-0.471904
-0.468576
0.109683
0.0794975
0.0483437
0.0160709
-0.0177203
-0.0529897
-0.0900868
-0.133667
-0.173083
-0.212895
-0.254385
-0.296694
-0.339112
-0.380753
-0.420979
-0.459206
-0.494782
-0.527279
-0.556222
-0.581561
-0.603266
-0.621373
-0.636034
-0.647528
-0.656204
-0.662344
-0.666218
-0.668239
-0.668766
-0.668043
-0.666251
-0.663655
-0.660437
-0.656717
-0.652564
-0.648113
-0.643458
-0.638647
-0.633709
-0.628666
-0.623602
-0.618527
-0.613451
-0.608381
-0.603372
-0.598383
-0.593446
-0.588588
-0.583762
-0.579018
-0.574349
-0.569729
-0.565207
-0.560745
-0.556371
-0.552045
-0.547851
-0.543653
-0.539596
-0.535558
-0.531615
-0.527753
-0.523926
-0.520167
-0.516495
-0.512882
-0.509292
-0.50579
-0.502364
-0.498946
-0.4956
-0.492313
-0.489047
-0.485815
-0.482684
-0.479531
-0.476418
-0.473271
-0.470371
-0.467117
0.11259
0.0842263
0.0550483
0.0249616
-0.00635391
-0.0392809
-0.0749457
-0.114107
-0.151568
-0.188654
-0.227086
-0.266489
-0.306327
-0.345801
-0.38432
-0.421367
-0.456315
-0.488743
-0.518149
-0.54441
-0.567416
-0.587115
-0.60357
-0.617016
-0.627739
-0.635918
-0.64176
-0.645623
-0.647856
-0.648693
-0.648324
-0.647008
-0.64495
-0.642276
-0.639071
-0.635471
-0.631588
-0.62748
-0.623182
-0.618724
-0.614188
-0.609602
-0.604979
-0.600325
-0.595693
-0.591065
-0.58646
-0.581906
-0.577375
-0.5729
-0.568484
-0.564107
-0.559808
-0.55556
-0.551389
-0.547258
-0.54324
-0.539227
-0.535331
-0.531459
-0.527668
-0.52395
-0.52027
-0.51665
-0.513107
-0.50962
-0.506159
-0.502774
-0.499459
-0.496158
-0.492919
-0.489735
-0.486575
-0.483442
-0.480404
-0.477345
-0.474337
-0.471275
-0.468474
-0.465315
0.114943
0.0882071
0.0607864
0.0326018
0.00333723
-0.0272786
-0.0594888
-0.0937473
-0.133343
-0.167936
-0.203387
-0.23992
-0.27722
-0.314511
-0.351231
-0.386916
-0.420965
-0.452974
-0.482439
-0.509192
-0.533063
-0.55394
-0.571811
-0.586828
-0.599247
-0.609203
-0.616828
-0.622407
-0.626259
-0.628602
-0.629623
-0.629573
-0.62867
-0.627047
-0.624799
-0.622063
-0.618967
-0.615578
-0.611935
-0.608078
-0.604087
-0.600005
-0.595848
-0.591623
-0.587384
-0.583128
-0.578866
-0.574627
-0.570398
-0.566202
-0.562047
-0.557921
-0.553854
-0.549827
-0.545865
-0.541936
-0.5381
-0.534277
-0.530549
-0.526848
-0.523215
-0.519648
-0.51612
-0.512645
-0.509236
-0.505881
-0.502556
-0.499295
-0.496098
-0.492919
-0.489797
-0.486722
-0.483676
-0.480653
-0.477717
-0.474762
-0.471868
-0.468907
-0.466208
-0.463162
0.116835
0.0915584
0.0657054
0.0392117
0.0118113
-0.0166975
-0.0465756
-0.0780629
-0.111122
-0.149032
-0.182771
-0.216601
-0.25142
-0.286535
-0.321416
-0.355634
-0.388601
-0.419938
-0.449154
-0.476055
-0.500432
-0.522124
-0.541067
-0.557346
-0.571148
-0.582583
-0.591767
-0.598905
-0.604266
-0.608037
-0.610396
-0.611578
-0.61181
-0.611227
-0.609933
-0.608066
-0.605764
-0.603102
-0.600123
-0.596877
-0.593443
-0.589875
-0.586194
-0.582409
-0.578573
-0.574696
-0.570786
-0.566869
-0.562949
-0.559039
-0.555151
-0.55128
-0.547449
-0.543648
-0.539899
-0.536176
-0.532526
-0.528895
-0.525338
-0.52181
-0.518338
-0.514923
-0.511549
-0.508221
-0.504949
-0.501729
-0.498541
-0.495407
-0.492332
-0.489279
-0.486277
-0.483317
-0.480389
-0.47748
-0.474651
-0.471807
-0.469032
-0.466182
-0.463587
-0.460667
0.118339
0.0943784
0.0699336
0.0449552
0.0192035
-0.00752311
-0.0354789
-0.0648572
-0.0960741
-0.129312
-0.164
-0.19616
-0.228634
-0.26156
-0.294581
-0.327279
-0.359048
-0.38954
-0.418276
-0.445056
-0.469642
-0.491843
-0.511554
-0.52881
-0.543737
-0.556396
-0.566884
-0.57539
-0.582123
-0.587226
-0.590853
-0.593221
-0.594554
-0.594989
-0.594636
-0.593631
-0.592121
-0.590187
-0.587878
-0.585247
-0.582377
-0.579331
-0.576132
-0.572795
-0.569369
-0.565877
-0.562324
-0.558738
-0.55513
-0.551511
-0.547894
-0.544282
-0.540691
-0.537118
-0.533584
-0.530068
-0.526608
-0.523167
-0.519783
-0.516428
-0.513118
-0.509857
-0.506635
-0.503454
-0.500321
-0.497236
-0.494183
-0.491177
-0.488224
-0.485297
-0.482415
-0.479571
-0.476762
-0.473969
-0.47125
-0.468519
-0.465863
-0.463131
-0.460638
-0.457851
0.119517
0.0967476
0.073573
0.049953
0.0256632
0.000511891
-0.0257292
-0.0531759
-0.0819863
-0.112261
-0.144602
-0.177736
-0.208577
-0.239354
-0.270468
-0.301599
-0.332098
-0.361635
-0.389728
-0.416182
-0.440743
-0.463195
-0.483414
-0.501393
-0.517207
-0.530874
-0.542454
-0.552108
-0.560048
-0.566366
-0.571178
-0.57467
-0.57706
-0.578481
-0.579044
-0.578887
-0.578161
-0.57695
-0.575308
-0.573294
-0.570991
-0.56847
-0.565758
-0.562873
-0.559863
-0.55676
-0.553569
-0.550318
-0.547027
-0.543701
-0.54036
-0.537009
-0.53366
-0.530318
-0.527001
-0.523693
-0.520423
-0.517172
-0.513963
-0.510779
-0.507631
-0.504523
-0.501453
-0.498417
-0.495421
-0.492469
-0.489551
-0.486671
-0.483838
-0.481035
-0.478272
-0.475543
-0.47285
-0.470173
-0.467563
-0.464945
-0.462406
-0.459793
-0.457399
-0.454746
0.120419
0.0987325
0.076708
0.0543126
0.0313369
0.00760383
-0.0170923
-0.0428353
-0.0697756
-0.0980156
-0.127493
-0.158692
-0.190808
-0.219932
-0.249073
-0.278466
-0.307572
-0.33606
-0.363388
-0.389372
-0.41373
-0.436225
-0.456731
-0.475213
-0.4917
-0.506172
-0.518662
-0.529289
-0.538245
-0.545631
-0.551525
-0.556071
-0.559464
-0.56183
-0.563278
-0.563947
-0.563987
-0.563487
-0.562505
-0.561104
-0.559367
-0.557371
-0.555147
-0.552717
-0.550128
-0.547417
-0.544591
-0.541679
-0.538706
-0.535678
-0.532615
-0.529527
-0.526424
-0.523314
-0.520215
-0.517115
-0.514039
-0.510977
-0.507942
-0.504928
-0.501941
-0.498987
-0.496066
-0.493174
-0.490313
-0.487493
-0.484706
-0.48195
-0.479237
-0.476553
-0.473907
-0.47129
-0.468711
-0.466146
-0.463642
-0.461136
-0.458708
-0.456214
-0.453914
-0.451392
0.121087
0.100388
0.0794098
0.0581241
0.0363354
0.0138772
-0.009445
-0.0337076
-0.0590446
-0.0854848
-0.11296
-0.14117
-0.170516
-0.202388
-0.230414
-0.258039
-0.285505
-0.312727
-0.339131
-0.364521
-0.38854
-0.410915
-0.431533
-0.450336
-0.467309
-0.482405
-0.495634
-0.507079
-0.516904
-0.525191
-0.532036
-0.537547
-0.541882
-0.545145
-0.547442
-0.548907
-0.549691
-0.549885
-0.549551
-0.548754
-0.547576
-0.5461
-0.544363
-0.542389
-0.540221
-0.537904
-0.535446
-0.532876
-0.530224
-0.527495
-0.524713
-0.52189
-0.519034
-0.516159
-0.513279
-0.510388
-0.507506
-0.504633
-0.501774
-0.49893
-0.496103
-0.493302
-0.490528
-0.487778
-0.485052
-0.482362
-0.479702
-0.477069
-0.474472
-0.471905
-0.469372
-0.466865
-0.464395
-0.461939
-0.459539
-0.457141
-0.454818
-0.452439
-0.450227
-0.447832
0.121556
0.101762
0.0817378
0.0614615
0.0407481
0.0194392
-0.00264976
-0.025586
-0.0494871
-0.0743703
-0.10022
-0.1269
-0.154177
-0.181541
-0.211532
-0.240163
-0.266083
-0.291879
-0.317058
-0.341629
-0.365114
-0.387196
-0.407778
-0.426755
-0.444062
-0.459631
-0.473451
-0.485572
-0.496137
-0.505204
-0.512853
-0.519209
-0.524409
-0.528517
-0.531622
-0.533851
-0.535352
-0.536219
-0.536518
-0.536312
-0.535682
-0.534718
-0.533463
-0.531942
-0.530192
-0.528266
-0.526179
-0.523952
-0.521621
-0.519195
-0.516696
-0.514139
-0.511533
-0.508893
-0.506234
-0.503553
-0.500867
-0.498182
-0.4955
-0.492825
-0.490159
-0.487509
-0.484883
-0.482273
-0.479681
-0.477119
-0.474585
-0.472071
-0.469589
-0.467137
-0.464713
-0.462313
-0.459949
-0.457598
-0.455297
-0.453003
-0.45078
-0.448512
-0.446383
-0.444107
0.121856
0.102892
0.083742
0.0643868
0.0446515
0.0243847
0.00341174
-0.0183292
-0.0409504
-0.0644712
-0.0888858
-0.114079
-0.139978
-0.166388
-0.192764
-0.219266
-0.247398
-0.273771
-0.297609
-0.321115
-0.343766
-0.365252
-0.385568
-0.404532
-0.422012
-0.43791
-0.452188
-0.464856
-0.476041
-0.485782
-0.494138
-0.501205
-0.507152
-0.51203
-0.515891
-0.518844
-0.521026
-0.522537
-0.523447
-0.523818
-0.523729
-0.523271
-0.522498
-0.521429
-0.520089
-0.518551
-0.516831
-0.514945
-0.512934
-0.51081
-0.508595
-0.506306
-0.503951
-0.501548
-0.499112
-0.496642
-0.494152
-0.491656
-0.489151
-0.486645
-0.48414
-0.481642
-0.479162
-0.476692
-0.474233
-0.471799
-0.469388
-0.466993
-0.464625
-0.462283
-0.459967
-0.457672
-0.45541
-0.453161
-0.450956
-0.448762
-0.446632
-0.444469
-0.44242
-0.440255
0.122011
0.103812
0.0854647
0.066953
0.0481106
0.0287927
0.00883296
-0.0118274
-0.0332957
-0.0555904
-0.0787111
-0.102565
-0.127119
-0.152125
-0.177441
-0.202833
-0.227588
-0.252151
-0.277934
-0.302159
-0.324951
-0.345836
-0.365582
-0.384159
-0.40151
-0.417503
-0.43206
-0.445111
-0.456767
-0.467059
-0.476026
-0.483707
-0.490277
-0.495807
-0.50034
-0.503964
-0.506771
-0.508868
-0.510339
-0.511259
-0.511698
-0.511737
-0.511451
-0.510856
-0.509936
-0.508794
-0.507441
-0.505889
-0.504195
-0.502372
-0.50044
-0.498418
-0.496316
-0.494151
-0.491937
-0.489678
-0.487387
-0.48508
-0.482752
-0.480416
-0.478071
-0.475727
-0.473392
-0.471062
-0.468735
-0.466428
-0.46414
-0.461862
-0.459606
-0.457374
-0.455163
-0.45297
-0.450807
-0.448658
-0.446545
-0.444447
-0.442408
-0.440344
-0.438371
-0.436308
0.122041
0.10455
0.0869419
0.0692049
0.0511804
0.0327292
0.0136931
-0.00598493
-0.0264065
-0.047591
-0.0695428
-0.0921809
-0.115485
-0.139264
-0.163405
-0.187668
-0.211911
-0.236023
-0.259309
-0.281534
-0.303195
-0.324876
-0.345375
-0.364371
-0.381802
-0.397916
-0.41268
-0.426146
-0.438135
-0.448847
-0.458324
-0.466644
-0.47381
-0.47995
-0.485142
-0.489414
-0.492898
-0.495637
-0.497649
-0.498992
-0.49978
-0.500197
-0.500243
-0.500143
-0.499658
-0.498961
-0.498005
-0.4968
-0.495428
-0.493907
-0.492255
-0.490498
-0.488648
-0.486721
-0.484731
-0.482683
-0.480591
-0.478473
-0.476323
-0.474157
-0.471973
-0.469781
-0.467592
-0.465401
-0.463207
-0.461026
-0.45886
-0.456699
-0.454553
-0.45243
-0.450323
-0.448231
-0.446165
-0.444112
-0.44209
-0.440085
-0.438131
-0.436162
-0.434263
-0.432295
0.121966
0.105129
0.0882044
0.071181
0.0539078
0.0362511
0.0180597
-0.000721425
-0.0201891
-0.0403643
-0.0612544
-0.0827893
-0.104961
-0.127613
-0.150626
-0.173867
-0.19714
-0.220201
-0.242846
-0.265069
-0.286693
-0.307446
-0.326996
-0.345387
-0.362764
-0.379008
-0.393998
-0.407654
-0.420122
-0.431338
-0.441305
-0.45007
-0.457757
-0.464423
-0.470117
-0.474909
-0.478924
-0.482194
-0.484766
-0.486737
-0.488225
-0.489259
-0.489797
-0.489653
-0.489313
-0.489008
-0.488463
-0.487637
-0.486621
-0.485418
-0.484053
-0.482564
-0.480966
-0.479276
-0.477509
-0.475672
-0.473779
-0.471849
-0.469878
-0.467882
-0.465859
-0.46382
-0.461777
-0.459724
-0.457663
-0.455608
-0.453564
-0.451518
-0.449484
-0.447468
-0.445464
-0.443471
-0.441501
-0.439542
-0.437609
-0.435695
-0.433824
-0.431945
-0.430117
-0.428238
0.121799
0.10557
0.0892784
0.0729142
0.0563333
0.0394069
0.0219906
0.00403091
-0.0145645
-0.0338181
-0.0537395
-0.0742683
-0.0954021
-0.11701
-0.138984
-0.161214
-0.183508
-0.205732
-0.227707
-0.249262
-0.270176
-0.290364
-0.309682
-0.328036
-0.345375
-0.361589
-0.376614
-0.39043
-0.403098
-0.414574
-0.424867
-0.434023
-0.442144
-0.449266
-0.455431
-0.460711
-0.46521
-0.468988
-0.472084
-0.474555
-0.476464
-0.477864
-0.4788
-0.479378
-0.479725
-0.479542
-0.478983
-0.478439
-0.477771
-0.476897
-0.475835
-0.474625
-0.473284
-0.471832
-0.470287
-0.46866
-0.466965
-0.465224
-0.463431
-0.461603
-0.459741
-0.457855
-0.455958
-0.454044
-0.452115
-0.450187
-0.448263
-0.446333
-0.444409
-0.442499
-0.440598
-0.438703
-0.436828
-0.434962
-0.433116
-0.43129
-0.4295
-0.427707
-0.425951
-0.424154
0.121554
0.105891
0.0901868
0.0744331
0.0584916
0.0422383
0.0255353
0.0083303
-0.00946478
-0.0278737
-0.0469077
-0.0665142
-0.0866943
-0.107338
-0.128348
-0.149635
-0.171034
-0.192431
-0.213611
-0.234445
-0.254779
-0.274526
-0.293508
-0.311598
-0.328744
-0.344871
-0.359915
-0.373833
-0.386662
-0.398377
-0.408975
-0.418486
-0.426992
-0.434527
-0.441129
-0.446859
-0.45181
-0.456041
-0.459589
-0.462498
-0.464827
-0.466658
-0.46805
-0.469032
-0.469621
-0.469856
-0.469862
-0.469535
-0.468998
-0.468363
-0.467598
-0.466684
-0.465612
-0.4644
-0.463077
-0.461658
-0.460161
-0.458606
-0.456991
-0.455332
-0.453631
-0.451897
-0.450146
-0.44837
-0.446573
-0.44477
-0.442967
-0.441153
-0.439339
-0.437535
-0.435734
-0.433938
-0.432157
-0.430382
-0.428622
-0.426882
-0.425172
-0.423461
-0.421776
-0.420057
0.121243
0.106107
0.0909492
0.075762
0.0604127
0.0447815
0.0287366
0.012227
-0.00483161
-0.0224639
-0.0406822
-0.0594408
-0.0787435
-0.0984971
-0.118613
-0.139021
-0.159568
-0.180152
-0.200581
-0.220753
-0.24052
-0.259764
-0.278324
-0.296093
-0.313023
-0.329032
-0.344044
-0.358006
-0.370949
-0.38285
-0.393695
-0.403498
-0.412333
-0.420231
-0.42722
-0.433352
-0.438714
-0.443355
-0.447311
-0.450631
-0.453378
-0.455625
-0.457407
-0.458739
-0.459683
-0.460311
-0.460642
-0.460687
-0.460499
-0.459993
-0.459381
-0.458726
-0.457947
-0.456987
-0.45589
-0.454679
-0.453376
-0.452007
-0.450568
-0.449078
-0.447536
-0.445954
-0.444347
-0.442709
-0.441044
-0.439367
-0.437684
-0.435984
-0.43428
-0.432581
-0.430882
-0.429182
-0.427494
-0.42581
-0.424135
-0.422479
-0.420848
-0.419217
-0.417602
-0.415958
0.120874
0.106231
0.0915827
0.0769225
0.0621229
0.047068
0.0316318
0.0157644
-0.000614565
-0.0175308
-0.0349974
-0.0529742
-0.0714675
-0.090397
-0.109683
-0.129266
-0.149009
-0.168825
-0.188541
-0.20806
-0.227241
-0.245968
-0.264101
-0.281538
-0.298222
-0.314067
-0.328996
-0.342955
-0.355962
-0.367991
-0.379024
-0.389065
-0.398178
-0.406388
-0.413716
-0.420206
-0.425937
-0.430954
-0.43529
-0.438991
-0.44212
-0.444742
-0.446886
-0.448577
-0.449879
-0.450844
-0.451482
-0.451829
-0.451931
-0.451804
-0.451419
-0.450779
-0.45027
-0.449582
-0.44873
-0.447732
-0.446622
-0.445436
-0.444171
-0.442847
-0.441464
-0.440033
-0.43857
-0.437069
-0.435534
-0.433983
-0.432419
-0.430834
-0.429238
-0.427645
-0.426045
-0.424442
-0.422846
-0.421251
-0.419662
-0.418088
-0.416535
-0.414983
-0.413437
-0.411865
0.120456
0.106274
0.0921021
0.0779333
0.0636449
0.0491252
0.0342532
0.0189806
0.00323019
-0.0130242
-0.0297962
-0.0470505
-0.0647952
-0.0829604
-0.101475
-0.120288
-0.139275
-0.158362
-0.177392
-0.196272
-0.214875
-0.233094
-0.250794
-0.267879
-0.284285
-0.299931
-0.314739
-0.328651
-0.341677
-0.353787
-0.364959
-0.375189
-0.384533
-0.393008
-0.40063
-0.407437
-0.413499
-0.418857
-0.423541
-0.427594
-0.431071
-0.434038
-0.436525
-0.438558
-0.44019
-0.441469
-0.44241
-0.443051
-0.44344
-0.44359
-0.443527
-0.443288
-0.442653
-0.442172
-0.441589
-0.440818
-0.439905
-0.438899
-0.437807
-0.436648
-0.435422
-0.434141
-0.43282
-0.431456
-0.430051
-0.428623
-0.427178
-0.425706
-0.424219
-0.42273
-0.421229
-0.419722
-0.418218
-0.416711
-0.415206
-0.413715
-0.412238
-0.410762
-0.409285
-0.407784
0.119996
0.106247
0.0925205
0.0788105
0.0649987
0.0509769
0.0366293
0.0219086
0.00674097
-0.00890016
-0.0250288
-0.0416138
-0.0586648
-0.0761202
-0.093916
-0.112009
-0.130287
-0.148684
-0.167057
-0.185322
-0.203362
-0.221077
-0.23834
-0.255057
-0.271165
-0.286586
-0.301242
-0.315071
-0.328076
-0.340226
-0.351493
-0.361869
-0.371399
-0.380096
-0.387971
-0.395055
-0.401412
-0.407077
-0.412077
-0.416451
-0.420251
-0.423539
-0.426345
-0.428695
-0.430634
-0.432214
-0.433447
-0.434371
-0.435032
-0.43544
-0.435624
-0.435601
-0.435353
-0.434818
-0.434459
-0.43393
-0.433225
-0.432404
-0.431484
-0.430488
-0.429416
-0.428283
-0.427103
-0.425874
-0.424597
-0.423293
-0.421965
-0.420606
-0.419227
-0.41784
-0.416439
-0.415027
-0.413613
-0.412194
-0.410772
-0.409362
-0.407962
-0.40656
-0.405153
-0.40372
0.1195
0.106158
0.0928492
0.0795685
0.0662018
0.0526444
0.0387849
0.0245776
0.00995134
-0.00512034
-0.0206519
-0.0366156
-0.0530221
-0.0698173
-0.0869433
-0.104363
-0.121974
-0.139719
-0.157467
-0.175142
-0.192636
-0.209855
-0.22668
-0.243022
-0.25882
-0.273995
-0.288473
-0.302188
-0.315139
-0.327291
-0.338616
-0.349097
-0.358773
-0.367653
-0.375743
-0.383067
-0.389683
-0.395623
-0.400908
-0.405575
-0.409672
-0.413258
-0.416361
-0.419003
-0.421232
-0.423097
-0.424608
-0.4258
-0.426718
-0.427373
-0.427792
-0.428004
-0.428012