# Probe 0 (0.5 0.5 0.05)
# Time        0            
15.001        -0.0315455   
15.002        -0.0315471   
15.003        -0.0315478   
15.004        -0.031545    
15.005        -0.0315465   
15.006        -0.031551    
15.007        -0.0315514   
15.008        -0.0315481   
15.009        -0.0315526   
15.01         -0.0315532   
15.011        -0.0315508   
15.012        -0.0315523   
15.013        -0.0315538   
15.014        -0.0315552   
15.015        -0.0315565   
15.016        -0.0315573   
15.017        -0.0315579   
15.018        -0.0315562   
15.019        -0.0315576   
15.02         -0.0315591   
15.021        -0.0315604   
15.022        -0.0315616   
15.023        -0.0315625   
15.024        -0.031563    
15.025        -0.0315613   
15.026        -0.0315627   
15.027        -0.0315642   
15.028        -0.0315655   
15.029        -0.0315668   
15.03         -0.0315676   
15.031        -0.0315682   
15.032        -0.0315689   
15.033        -0.0315667   
15.034        -0.0315683   
15.035        -0.0315726   
15.036        -0.0315702   
15.037        -0.0315716   
15.038        -0.0315727   
15.039        -0.0315737   
15.04         -0.0315747   
15.041        -0.0315754   
15.042        -0.0315762   
15.043        -0.0315743   
15.044        -0.0315758   
15.045        -0.0315773   
15.046        -0.0315787   
15.047        -0.0315799   
15.048        -0.0315808   
15.049        -0.0315814   
15.05         -0.0315796   
15.051        -0.031581    
15.052        -0.0315825   
15.053        -0.0315838   
15.054        -0.031585    
15.055        -0.0315859   
15.056        -0.0315864   
15.057        -0.0315872   
15.058        -0.0315849   
15.059        -0.0315866   
15.06         -0.0315908   
15.061        -0.0315884   
15.062        -0.0315898   
15.063        -0.0315911   
15.064        -0.031592    
15.065        -0.0315929   
15.066        -0.0315936   
15.067        -0.0315944   
15.068        -0.0315924   
15.069        -0.0315939   
15.07         -0.0315955   
15.071        -0.0315968   
15.072        -0.0315981   
15.073        -0.031599    
15.074        -0.0315995   
15.075        -0.0315977   
15.076        -0.0315992   
15.077        -0.0316006   
15.078        -0.0316019   
15.079        -0.0316032   
15.08         -0.031604    
15.081        -0.0316046   
15.082        -0.0316053   
15.083        -0.031603    
15.084        -0.0316046   
15.085        -0.0316089   
15.086        -0.0316065   
15.087        -0.0316079   
15.088        -0.0316089   
15.089        -0.03161     
15.09         -0.031611    
15.091        -0.0316116   
15.092        -0.0316124   
15.093        -0.0316105   
15.094        -0.0316119   
15.095        -0.0316135   
15.096        -0.0316149   
15.097        -0.0316161   
15.098        -0.031617    
15.099        -0.0316175   
15.1          -0.0316157   
15.101        -0.0316171   
15.102        -0.0316186   
15.103        -0.0316199   
15.104        -0.0316211   
15.105        -0.031622    
15.106        -0.0316225   
15.107        -0.0316232   
15.108        -0.031621    
15.109        -0.0316226   
15.11         -0.0316269   
15.111        -0.0316245   
15.112        -0.0316258   
15.113        -0.0316269   
15.114        -0.031628    
15.115        -0.0316289   
15.116        -0.0316295   
15.117        -0.0316303   
15.118        -0.0316283   
15.119        -0.0316298   
15.12         -0.0316314   
15.121        -0.0316327   
15.122        -0.031634    
15.123        -0.0316348   
15.124        -0.0316354   
15.125        -0.0316336   
15.126        -0.031635    
15.127        -0.0316365   
15.128        -0.0316378   
15.129        -0.031639    
15.13         -0.0316398   
15.131        -0.0316403   
15.132        -0.031641    
15.133        -0.0316388   
15.134        -0.0316404   
15.135        -0.0316447   
15.136        -0.0316422   
15.137        -0.0316436   
15.138        -0.0316447   
15.139        -0.0316457   
15.14         -0.0316467   
15.141        -0.0316473   
15.142        -0.0316481   
15.143        -0.0316461   
15.144        -0.0316476   
15.145        -0.0316491   
15.146        -0.0316505   
15.147        -0.0316517   
15.148        -0.0316526   
15.149        -0.0316531   
15.15         -0.0316513   
15.151        -0.0316527   
15.152        -0.0316542   
15.153        -0.0316555   
15.154        -0.0316567   
15.155        -0.0316575   
15.156        -0.031658    
15.157        -0.0316562   
15.158        -0.0316576   
15.159        -0.0316591   
15.16         -0.0316604   
15.161        -0.0316616   
15.162        -0.0316624   
15.163        -0.031663    
15.164        -0.0316612   
15.165        -0.0316626   
15.166        -0.031664    
15.167        -0.0316653   
15.168        -0.0316665   
15.169        -0.0316673   
15.17         -0.0316679   
15.171        -0.0316661   
15.172        -0.0316675   
15.173        -0.0316689   
15.174        -0.0316702   
15.175        -0.0316714   
15.176        -0.0316722   
15.177        -0.0316728   
15.178        -0.0316735   
15.179        -0.0316712   
15.18         -0.0316728   
15.181        -0.0316744   
15.182        -0.0316757   
15.183        -0.031677    
15.184        -0.0316778   
15.185        -0.0316784   
15.186        -0.0316766   
15.187        -0.031678    
15.188        -0.0316795   
15.189        -0.0316807   
15.19         -0.0316819   
15.191        -0.0316827   
15.192        -0.0316833   
15.193        -0.0316814   
15.194        -0.0316828   
15.195        -0.0316843   
15.196        -0.0316856   
15.197        -0.0316868   
15.198        -0.0316876   
15.199        -0.0316881   
15.2          -0.0316888   
15.201        -0.0316865   
15.202        -0.0316881   
15.203        -0.0316898   
15.204        -0.0316911   
15.205        -0.0316924   
15.206        -0.0316932   
15.207        -0.0316938   
15.208        -0.0316919   
15.209        -0.0316933   
15.21         -0.0316948   
15.211        -0.031696    
15.212        -0.0316972   
15.213        -0.031698    
15.214        -0.0316985   
15.215        -0.0316967   
15.216        -0.0316981   
15.217        -0.0316996   
15.218        -0.0317008   
15.219        -0.0317021   
15.22         -0.0317028   
15.221        -0.0317034   
15.222        -0.0317015   
15.223        -0.0317029   
15.224        -0.0317044   
15.225        -0.0317057   
15.226        -0.0317069   
15.227        -0.0317077   
15.228        -0.0317082   
15.229        -0.0317063   
15.23         -0.0317078   
15.231        -0.0317092   
15.232        -0.0317105   
15.233        -0.0317117   
15.234        -0.0317125   
15.235        -0.0317131   
15.236        -0.0317112   
15.237        -0.0317126   
15.238        -0.0317141   
15.239        -0.0317153   
15.24         -0.0317165   
15.241        -0.0317173   
15.242        -0.0317179   
15.243        -0.031716    
15.244        -0.0317174   
15.245        -0.0317189   
15.246        -0.0317201   
15.247        -0.0317213   
15.248        -0.0317221   
15.249        -0.0317227   
15.25         -0.0317208   
15.251        -0.0317222   
15.252        -0.0317236   
15.253        -0.0317249   
15.254        -0.0317261   
15.255        -0.0317269   
15.256        -0.0317275   
15.257        -0.0317255   
15.258        -0.031727    
15.259        -0.0317284   
15.26         -0.0317297   
15.261        -0.0317309   
15.262        -0.0317317   
15.263        -0.0317322   
15.264        -0.0317329   
15.265        -0.0317305   
15.266        -0.0317321   
15.267        -0.0317364   
15.268        -0.031734    
15.269        -0.0317353   
15.27         -0.0317363   
15.271        -0.0317374   
15.272        -0.0317383   
15.273        -0.0317389   
15.274        -0.0317397   
15.275        -0.0317402   
15.276        -0.0317407   
15.277        -0.0317387   
15.278        -0.0317403   
15.279        -0.0317445   
15.28         -0.0317421   
15.281        -0.0317434   
15.282        -0.0317446   
15.283        -0.0317456   
15.284        -0.0317465   
15.285        -0.0317471   
15.286        -0.0317478   
15.287        -0.0317483   
15.288        -0.0317461   
15.289        -0.0317477   
15.29         -0.031752    
15.291        -0.0317496   
15.292        -0.0317508   
15.293        -0.0317521   
15.294        -0.031753    
15.295        -0.0317539   
15.296        -0.0317545   
15.297        -0.0317552   
15.298        -0.0317531   
15.299        -0.0317546   
15.3          -0.0317561   
15.301        -0.0317575   
15.302        -0.0317587   
15.303        -0.0317595   
15.304        -0.03176     
15.305        -0.0317581   
15.306        -0.0317595   
15.307        -0.031761    
15.308        -0.0317622   
15.309        -0.0317634   
15.31         -0.0317642   
15.311        -0.0317647   
15.312        -0.0317627   
15.313        -0.0317642   
15.314        -0.0317656   
15.315        -0.0317669   
15.316        -0.0317681   
15.317        -0.0317689   
15.318        -0.0317694   
15.319        -0.0317675   
15.32         -0.0317689   
15.321        -0.0317703   
15.322        -0.0317716   
15.323        -0.0317728   
15.324        -0.0317736   
15.325        -0.0317741   
15.326        -0.0317721   
15.327        -0.0317736   
15.328        -0.031775    
15.329        -0.0317763   
15.33         -0.0317775   
15.331        -0.0317781   
15.332        -0.0317789   
15.333        -0.0317794   
15.334        -0.0317771   
15.335        -0.0317787   
15.336        -0.0317829   
15.337        -0.0317804   
15.338        -0.0317817   
15.339        -0.0317829   
15.34         -0.0317839   
15.341        -0.0317848   
15.342        -0.0317853   
15.343        -0.0317837   
15.344        -0.031785    
15.345        -0.0317864   
15.346        -0.0317877   
15.347        -0.0317888   
15.348        -0.0317896   
15.349        -0.0317901   
15.35         -0.0317881   
15.351        -0.0317895   
15.352        -0.031791    
15.353        -0.0317923   
15.354        -0.0317935   
15.355        -0.0317943   
15.356        -0.0317948   
15.357        -0.0317928   
15.358        -0.0317942   
15.359        -0.0317957   
15.36         -0.0317969   
15.361        -0.0317981   
15.362        -0.0317989   
15.363        -0.0317994   
15.364        -0.0317974   
15.365        -0.0317988   
15.366        -0.0318003   
15.367        -0.0318016   
15.368        -0.0318027   
15.369        -0.0318033   
15.37         -0.0318041   
15.371        -0.031802    
15.372        -0.0318035   
15.373        -0.0318049   
15.374        -0.0318062   
15.375        -0.0318074   
15.376        -0.0318081   
15.377        -0.0318086   
15.378        -0.0318066   
15.379        -0.031808    
15.38         -0.0318095   
15.381        -0.0318108   
15.382        -0.031812    
15.383        -0.0318127   
15.384        -0.0318132   
15.385        -0.0318112   
15.386        -0.0318127   
15.387        -0.0318141   
15.388        -0.0318154   
15.389        -0.0318166   
15.39         -0.0318173   
15.391        -0.0318178   
15.392        -0.0318158   
15.393        -0.0318172   
15.394        -0.0318187   
15.395        -0.03182     
15.396        -0.0318212   
15.397        -0.0318218   
15.398        -0.0318225   
15.399        -0.0318204   
15.4          -0.0318218   
15.401        -0.0318233   
15.402        -0.0318246   
15.403        -0.0318257   
15.404        -0.0318265   
15.405        -0.031827    
15.406        -0.0318276   
15.407        -0.0318252   
15.408        -0.0318268   
15.409        -0.0318311   
15.41         -0.0318285   
15.411        -0.0318298   
15.412        -0.031831    
15.413        -0.031832    
15.414        -0.0318328   
15.415        -0.0318334   
15.416        -0.0318341   
15.417        -0.0318319   
15.418        -0.0318334   
15.419        -0.0318349   
15.42         -0.0318362   
15.421        -0.0318375   
15.422        -0.0318382   
15.423        -0.0318388   
15.424        -0.0318368   
15.425        -0.0318381   
15.426        -0.0318396   
15.427        -0.0318408   
15.428        -0.031842    
15.429        -0.0318428   
15.43         -0.0318433   
15.431        -0.0318412   
15.432        -0.0318426   
15.433        -0.0318441   
15.434        -0.0318454   
15.435        -0.0318465   
15.436        -0.0318473   
15.437        -0.0318478   
15.438        -0.0318458   
15.439        -0.0318472   
15.44         -0.0318486   
15.441        -0.0318499   
15.442        -0.0318511   
15.443        -0.0318516   
15.444        -0.0318524   
15.445        -0.0318504   
15.446        -0.0318517   
15.447        -0.0318532   
15.448        -0.0318544   
15.449        -0.0318556   
15.45         -0.0318563   
15.451        -0.0318568   
15.452        -0.0318548   
15.453        -0.0318562   
15.454        -0.0318577   
15.455        -0.0318589   
15.456        -0.0318601   
15.457        -0.0318609   
15.458        -0.0318613   
15.459        -0.0318593   
15.46         -0.0318607   
15.461        -0.0318622   
15.462        -0.0318634   
15.463        -0.0318646   
15.464        -0.0318654   
15.465        -0.0318658   
15.466        -0.0318638   
15.467        -0.0318652   
15.468        -0.0318667   
15.469        -0.0318679   
15.47         -0.0318691   
15.471        -0.0318698   
15.472        -0.0318703   
15.473        -0.0318683   
15.474        -0.0318697   
15.475        -0.0318711   
15.476        -0.0318724   
15.477        -0.0318736   
15.478        -0.0318743   
15.479        -0.0318748   
15.48         -0.0318727   
15.481        -0.0318741   
15.482        -0.0318756   
15.483        -0.0318769   
15.484        -0.031878    
15.485        -0.0318788   
15.486        -0.0318793   
15.487        -0.0318772   
15.488        -0.0318786   
15.489        -0.0318801   
15.49         -0.0318813   
15.491        -0.0318825   
15.492        -0.0318832   
15.493        -0.0318837   
15.494        -0.0318816   
15.495        -0.0318831   
15.496        -0.0318845   
15.497        -0.0318858   
15.498        -0.0318869   
15.499        -0.0318877   
15.5          -0.0318882   
15.501        -0.0318861   
15.502        -0.0318875   
15.503        -0.031889    
15.504        -0.0318902   
15.505        -0.0318914   
15.506        -0.0318919   
15.507        -0.0318927   
15.508        -0.0318905   
15.509        -0.031892    
15.51         -0.0318934   
15.511        -0.0318947   
15.512        -0.0318958   
15.513        -0.0318966   
15.514        -0.031897    
15.515        -0.031895    
15.516        -0.0318964   
15.517        -0.0318978   
15.518        -0.0318991   
15.519        -0.0319002   
15.52         -0.0319008   
15.521        -0.0319016   
15.522        -0.0318994   
15.523        -0.0319008   
15.524        -0.0319022   
15.525        -0.0319035   
15.526        -0.0319047   
15.527        -0.0319052   
15.528        -0.031906    
15.529        -0.0319038   
15.53         -0.0319052   
15.531        -0.0319067   
15.532        -0.0319079   
15.533        -0.0319091   
15.534        -0.0319098   
15.535        -0.0319102   
15.536        -0.0319082   
15.537        -0.0319096   
15.538        -0.031911    
15.539        -0.0319123   
15.54         -0.0319135   
15.541        -0.0319142   
15.542        -0.0319147   
15.543        -0.0319126   
15.544        -0.031914    
15.545        -0.0319154   
15.546        -0.0319167   
15.547        -0.0319179   
15.548        -0.0319186   
15.549        -0.0319191   
15.55         -0.031917    
15.551        -0.0319184   
15.552        -0.0319198   
15.553        -0.0319211   
15.554        -0.0319222   
15.555        -0.0319228   
15.556        -0.0319235   
15.557        -0.0319213   
15.558        -0.0319227   
15.559        -0.0319242   
15.56         -0.0319255   
15.561        -0.0319266   
15.562        -0.0319272   
15.563        -0.0319279   
15.564        -0.0319257   
15.565        -0.0319271   
15.566        -0.0319286   
15.567        -0.0319298   
15.568        -0.031931    
15.569        -0.0319315   
15.57         -0.0319323   
15.571        -0.03193     
15.572        -0.0319314   
15.573        -0.0319329   
15.574        -0.0319342   
15.575        -0.0319353   
15.576        -0.031936    
15.577        -0.0319365   
15.578        -0.0319344   
15.579        -0.0319358   
15.58         -0.0319372   
15.581        -0.0319385   
15.582        -0.0319396   
15.583        -0.0319402   
15.584        -0.0319409   
15.585        -0.0319387   
15.586        -0.0319401   
15.587        -0.0319416   
15.588        -0.0319428   
15.589        -0.031944    
15.59         -0.0319447   
15.591        -0.0319452   
15.592        -0.031943    
15.593        -0.0319444   
15.594        -0.0319459   
15.595        -0.0319472   
15.596        -0.0319483   
15.597        -0.0319489   
15.598        -0.0319496   
15.599        -0.0319474   
15.6          -0.0319487   
15.601        -0.0319502   
15.602        -0.0319515   
15.603        -0.0319526   
15.604        -0.0319532   
15.605        -0.0319539   
15.606        -0.0319517   
15.607        -0.0319531   
15.608        -0.0319545   
15.609        -0.0319558   
15.61         -0.0319569   
15.611        -0.0319577   
15.612        -0.0319581   
15.613        -0.031956    
15.614        -0.0319574   
15.615        -0.0319588   
15.616        -0.0319601   
15.617        -0.0319612   
15.618        -0.031962    
15.619        -0.0319624   
15.62         -0.0319603   
15.621        -0.0319617   
15.622        -0.0319631   
15.623        -0.0319644   
15.624        -0.0319655   
15.625        -0.0319661   
15.626        -0.0319668   
15.627        -0.0319646   
15.628        -0.0319659   
15.629        -0.0319674   
15.63         -0.0319687   
15.631        -0.0319698   
15.632        -0.0319704   
15.633        -0.0319711   
15.634        -0.0319688   
15.635        -0.0319702   
15.636        -0.0319717   
15.637        -0.0319729   
15.638        -0.0319741   
15.639        -0.0319748   
15.64         -0.0319752   
15.641        -0.0319731   
15.642        -0.0319745   
15.643        -0.0319759   
15.644        -0.0319772   
15.645        -0.0319783   
15.646        -0.0319791   
15.647        -0.0319795   
15.648        -0.0319773   
15.649        -0.0319787   
15.65         -0.0319802   
15.651        -0.0319815   
15.652        -0.0319826   
15.653        -0.0319833   
15.654        -0.0319838   
15.655        -0.0319816   
15.656        -0.031983    
15.657        -0.0319844   
15.658        -0.0319857   
15.659        -0.0319868   
15.66         -0.0319876   
15.661        -0.031988    
15.662        -0.0319858   
15.663        -0.0319872   
15.664        -0.0319887   
15.665        -0.0319899   
15.666        -0.0319911   
15.667        -0.0319916   
15.668        -0.0319923   
15.669        -0.0319901   
15.67         -0.0319915   
15.671        -0.0319929   
15.672        -0.0319942   
15.673        -0.0319953   
15.674        -0.0319959   
15.675        -0.0319966   
15.676        -0.0319943   
15.677        -0.0319957   
15.678        -0.0319971   
15.679        -0.0319984   
15.68         -0.0319995   
15.681        -0.0320001   
15.682        -0.0320008   
15.683        -0.0319985   
15.684        -0.0319999   
15.685        -0.0320014   
15.686        -0.0320026   
15.687        -0.0320037   
15.688        -0.0320043   
15.689        -0.032005    
15.69         -0.0320027   
15.691        -0.0320041   
15.692        -0.0320056   
15.693        -0.0320068   
15.694        -0.0320079   
15.695        -0.0320085   
15.696        -0.0320092   
15.697        -0.032007    
15.698        -0.0320084   
15.699        -0.0320098   
15.7          -0.032011    
15.701        -0.0320121   
15.702        -0.0320127   
15.703        -0.0320134   
15.704        -0.0320111   
15.705        -0.0320125   
15.706        -0.032014    
15.707        -0.0320152   
15.708        -0.0320163   
15.709        -0.0320171   
15.71         -0.0320175   
15.711        -0.0320153   
15.712        -0.0320167   
15.713        -0.0320181   
15.714        -0.0320194   
15.715        -0.0320205   
15.716        -0.0320211   
15.717        -0.0320218   
15.718        -0.0320195   
15.719        -0.0320209   
15.72         -0.0320223   
15.721        -0.0320236   
15.722        -0.0320247   
15.723        -0.0320252   
15.724        -0.0320259   
15.725        -0.0320236   
15.726        -0.032025    
15.727        -0.0320265   
15.728        -0.0320277   
15.729        -0.0320288   
15.73         -0.0320294   
15.731        -0.0320301   
15.732        -0.0320278   
15.733        -0.0320292   
15.734        -0.0320306   
15.735        -0.0320319   
15.736        -0.032033    
15.737        -0.0320336   
15.738        -0.0320342   
15.739        -0.0320319   
15.74         -0.0320333   
15.741        -0.0320348   
15.742        -0.032036    
15.743        -0.0320371   
15.744        -0.0320377   
15.745        -0.0320384   
15.746        -0.0320361   
15.747        -0.0320375   
15.748        -0.0320389   
15.749        -0.0320402   
15.75         -0.0320413   
15.751        -0.032042    
15.752        -0.0320424   
15.753        -0.0320402   
15.754        -0.0320416   
15.755        -0.0320431   
15.756        -0.0320443   
15.757        -0.0320454   
15.758        -0.032046    
15.759        -0.0320466   
15.76         -0.0320443   
15.761        -0.0320457   
15.762        -0.0320472   
15.763        -0.0320484   
15.764        -0.0320495   
15.765        -0.0320501   
15.766        -0.0320508   
15.767        -0.0320484   
15.768        -0.0320498   
15.769        -0.0320513   
15.77         -0.0320525   
15.771        -0.0320536   
15.772        -0.0320542   
15.773        -0.0320549   
15.774        -0.0320526   
15.775        -0.032054    
15.776        -0.0320554   
15.777        -0.0320566   
15.778        -0.0320577   
15.779        -0.0320583   
15.78         -0.032059    
15.781        -0.0320567   
15.782        -0.0320581   
15.783        -0.0320595   
15.784        -0.0320607   
15.785        -0.0320618   
15.786        -0.0320624   
15.787        -0.0320631   
15.788        -0.0320608   
15.789        -0.0320621   
15.79         -0.0320636   
15.791        -0.0320648   
15.792        -0.0320659   
15.793        -0.0320665   
15.794        -0.0320672   
15.795        -0.0320648   
15.796        -0.0320662   
15.797        -0.0320677   
15.798        -0.0320689   
15.799        -0.03207     
15.8          -0.0320706   
15.801        -0.0320712   
15.802        -0.0320689   
15.803        -0.0320703   
15.804        -0.0320718   
15.805        -0.032073    
15.806        -0.0320741   
15.807        -0.0320746   
15.808        -0.0320753   
15.809        -0.032073    
15.81         -0.0320744   
15.811        -0.0320758   
15.812        -0.032077    
15.813        -0.0320782   
15.814        -0.0320787   
15.815        -0.0320794   
15.816        -0.0320771   
15.817        -0.0320784   
15.818        -0.0320799   
15.819        -0.0320811   
15.82         -0.0320822   
15.821        -0.0320828   
15.822        -0.0320834   
15.823        -0.0320811   
15.824        -0.0320825   
15.825        -0.0320839   
15.826        -0.0320852   
15.827        -0.0320863   
15.828        -0.032087    
15.829        -0.0320874   
15.83         -0.0320851   
15.831        -0.0320865   
15.832        -0.032088    
15.833        -0.0320892   
15.834        -0.0320903   
15.835        -0.0320909   
15.836        -0.0320916   
15.837        -0.0320892   
15.838        -0.0320906   
15.839        -0.032092    
15.84         -0.0320932   
15.841        -0.0320943   
15.842        -0.0320949   
15.843        -0.0320956   
15.844        -0.0320932   
15.845        -0.0320946   
15.846        -0.032096    
15.847        -0.0320973   
15.848        -0.0320984   
15.849        -0.0320989   
15.85         -0.0320996   
15.851        -0.0320972   
15.852        -0.0320986   
15.853        -0.0321001   
15.854        -0.0321013   
15.855        -0.0321024   
15.856        -0.0321029   
15.857        -0.0321036   
15.858        -0.0321013   
15.859        -0.0321026   
15.86         -0.0321041   
15.861        -0.0321053   
15.862        -0.0321064   
15.863        -0.0321069   
15.864        -0.0321076   
15.865        -0.0321053   
15.866        -0.0321067   
15.867        -0.0321081   
15.868        -0.0321093   
15.869        -0.0321104   
15.87         -0.0321109   
15.871        -0.0321116   
15.872        -0.0321093   
15.873        -0.0321106   
15.874        -0.0321121   
15.875        -0.0321133   
15.876        -0.0321144   
15.877        -0.0321151   
15.878        -0.0321155   
15.879        -0.0321132   
15.88         -0.0321146   
15.881        -0.0321161   
15.882        -0.0321173   
15.883        -0.0321184   
15.884        -0.0321189   
15.885        -0.0321196   
15.886        -0.0321172   
15.887        -0.0321186   
15.888        -0.0321201   
15.889        -0.0321213   
15.89         -0.0321224   
15.891        -0.0321231   
15.892        -0.0321235   
15.893        -0.0321212   
15.894        -0.0321226   
15.895        -0.032124    
15.896        -0.0321252   
15.897        -0.0321263   
15.898        -0.0321269   
15.899        -0.0321276   
15.9          -0.0321252   
15.901        -0.0321266   
15.902        -0.032128    
15.903        -0.0321292   
15.904        -0.0321303   
15.905        -0.0321309   
15.906        -0.0321315   
15.907        -0.0321291   
15.908        -0.0321305   
15.909        -0.032132    
15.91         -0.0321332   
15.911        -0.0321343   
15.912        -0.0321348   
15.913        -0.0321355   
15.914        -0.0321331   
15.915        -0.0321345   
15.916        -0.0321359   
15.917        -0.0321371   
15.918        -0.0321382   
15.919        -0.032139    
15.92         -0.0321393   
15.921        -0.032137    
15.922        -0.0321384   
15.923        -0.0321398   
15.924        -0.0321411   
15.925        -0.0321422   
15.926        -0.0321427   
15.927        -0.0321434   
15.928        -0.032141    
15.929        -0.0321424   
15.93         -0.0321438   
15.931        -0.032145    
15.932        -0.0321461   
15.933        -0.0321466   
15.934        -0.0321473   
15.935        -0.0321449   
15.936        -0.0321463   
15.937        -0.0321477   
15.938        -0.032149    
15.939        -0.03215     
15.94         -0.0321506   
15.941        -0.0321512   
15.942        -0.0321488   
15.943        -0.0321502   
15.944        -0.0321517   
15.945        -0.0321529   
15.946        -0.032154    
15.947        -0.0321545   
15.948        -0.0321551   
15.949        -0.0321528   
15.95         -0.0321542   
15.951        -0.0321556   
15.952        -0.0321568   
15.953        -0.0321579   
15.954        -0.0321584   
15.955        -0.0321591   
15.956        -0.0321567   
15.957        -0.032158    
15.958        -0.0321595   
15.959        -0.0321607   
15.96         -0.0321618   
15.961        -0.0321623   
15.962        -0.032163    
15.963        -0.0321606   
15.964        -0.0321619   
15.965        -0.0321634   
15.966        -0.0321646   
15.967        -0.0321657   
15.968        -0.0321664   
15.969        -0.0321667   
15.97         -0.0321644   
15.971        -0.0321658   
15.972        -0.0321673   
15.973        -0.0321685   
15.974        -0.0321696   
15.975        -0.0321701   
15.976        -0.0321708   
15.977        -0.0321683   
15.978        -0.0321697   
15.979        -0.0321712   
15.98         -0.0321724   
15.981        -0.0321735   
15.982        -0.032174    
15.983        -0.0321747   
15.984        -0.0321723   
15.985        -0.0321736   
15.986        -0.0321751   
15.987        -0.0321763   
15.988        -0.0321774   
15.989        -0.0321781   
15.99         -0.0321784   
15.991        -0.0321761   
15.992        -0.0321775   
15.993        -0.0321789   
15.994        -0.0321802   
15.995        -0.0321813   
15.996        -0.0321819   
15.997        -0.0321825   
15.998        -0.03218     
15.999        -0.0321814   
16            -0.0321828   
16.001        -0.032184    
16.002        -0.0321851   
16.003        -0.0321858   
16.004        -0.0321861   
16.005        -0.0321838   
16.006        -0.0321851   
16.007        -0.0321866   
16.008        -0.0321878   
16.009        -0.0321889   
16.01         -0.0321897   
16.011        -0.03219     
16.012        -0.0321876   
16.013        -0.032189    
16.014        -0.0321905   
16.015        -0.0321917   
16.016        -0.0321928   
16.017        -0.0321933   
16.018        -0.0321939   
16.019        -0.0321915   
16.02         -0.0321929   
16.021        -0.0321943   
16.022        -0.0321955   
16.023        -0.0321966   
16.024        -0.0321973   
16.025        -0.0321977   
16.026        -0.0321953   
16.027        -0.0321967   
16.028        -0.0321981   
16.029        -0.0321994   
16.03         -0.0322005   
16.031        -0.0322011   
16.032        -0.0322015   
16.033        -0.0321992   
16.034        -0.0322006   
16.035        -0.032202    
16.036        -0.0322032   
16.037        -0.0322043   
16.038        -0.0322048   
16.039        -0.0322055   
16.04         -0.0322031   
16.041        -0.0322044   
16.042        -0.0322059   
16.043        -0.032207    
16.044        -0.0322081   
16.045        -0.0322086   
16.046        -0.0322092   
16.047        -0.0322068   
16.048        -0.0322082   
16.049        -0.0322096   
16.05         -0.0322108   
16.051        -0.0322119   
16.052        -0.0322125   
16.053        -0.0322131   
16.054        -0.0322107   
16.055        -0.032212    
16.056        -0.0322135   
16.057        -0.0322147   
16.058        -0.0322157   
16.059        -0.0322163   
16.06         -0.0322169   
16.061        -0.0322145   
16.062        -0.0322159   
16.063        -0.0322173   
16.064        -0.0322185   
16.065        -0.0322196   
16.066        -0.0322203   
16.067        -0.0322206   
16.068        -0.0322182   
16.069        -0.0322196   