# Probe 0 (0.5 0.5 0.05)
# Time        0            
15.001        (0.983223 1.5593e-05 0)
15.002        (0.983223 1.55814e-05 0)
15.003        (0.983223 1.55734e-05 0)
15.004        (0.983224 1.55681e-05 0)
15.005        (0.983224 1.55644e-05 0)
15.006        (0.983224 1.5562e-05 0)
15.007        (0.983224 1.55604e-05 0)
15.008        (0.983225 1.55592e-05 0)
15.009        (0.983225 1.55583e-05 0)
15.01         (0.983225 1.55576e-05 0)
15.011        (0.983225 1.5557e-05 0)
15.012        (0.983226 1.55564e-05 0)
15.013        (0.983226 1.55559e-05 0)
15.014        (0.983226 1.55554e-05 0)
15.015        (0.983226 1.5555e-05 0)
15.016        (0.983227 1.55545e-05 0)
15.017        (0.983227 1.5554e-05 0)
15.018        (0.983227 1.55535e-05 0)
15.019        (0.983227 1.5553e-05 0)
15.02         (0.983228 1.55524e-05 0)
15.021        (0.983228 1.55519e-05 0)
15.022        (0.983228 1.55514e-05 0)
15.023        (0.983228 1.55508e-05 0)
15.024        (0.983229 1.55503e-05 0)
15.025        (0.983229 1.55497e-05 0)
15.026        (0.983229 1.55492e-05 0)
15.027        (0.983229 1.55486e-05 0)
15.028        (0.98323 1.55481e-05 0)
15.029        (0.98323 1.55475e-05 0)
15.03         (0.98323 1.55469e-05 0)
15.031        (0.98323 1.55463e-05 0)
15.032        (0.983231 1.55458e-05 0)
15.033        (0.983231 1.55452e-05 0)
15.034        (0.983231 1.55446e-05 0)
15.035        (0.983231 1.5544e-05 0)
15.036        (0.983232 1.55435e-05 0)
15.037        (0.983232 1.55429e-05 0)
15.038        (0.983232 1.55423e-05 0)
15.039        (0.983232 1.55417e-05 0)
15.04         (0.983233 1.55412e-05 0)
15.041        (0.983233 1.55406e-05 0)
15.042        (0.983233 1.554e-05 0)
15.043        (0.983233 1.55394e-05 0)
15.044        (0.983234 1.55388e-05 0)
15.045        (0.983234 1.55383e-05 0)
15.046        (0.983234 1.55377e-05 0)
15.047        (0.983234 1.55371e-05 0)
15.048        (0.983235 1.55365e-05 0)
15.049        (0.983235 1.55359e-05 0)
15.05         (0.983235 1.55354e-05 0)
15.051        (0.983235 1.55348e-05 0)
15.052        (0.983236 1.55342e-05 0)
15.053        (0.983236 1.55336e-05 0)
15.054        (0.983236 1.55331e-05 0)
15.055        (0.983236 1.55325e-05 0)
15.056        (0.983237 1.55319e-05 0)
15.057        (0.983237 1.55313e-05 0)
15.058        (0.983237 1.55308e-05 0)
15.059        (0.983237 1.55302e-05 0)
15.06         (0.983238 1.55296e-05 0)
15.061        (0.983238 1.5529e-05 0)
15.062        (0.983238 1.55285e-05 0)
15.063        (0.983238 1.55279e-05 0)
15.064        (0.983239 1.55273e-05 0)
15.065        (0.983239 1.55267e-05 0)
15.066        (0.983239 1.55262e-05 0)
15.067        (0.983239 1.55256e-05 0)
15.068        (0.98324 1.5525e-05 0)
15.069        (0.98324 1.55245e-05 0)
15.07         (0.98324 1.55239e-05 0)
15.071        (0.98324 1.55233e-05 0)
15.072        (0.983241 1.55227e-05 0)
15.073        (0.983241 1.55221e-05 0)
15.074        (0.983241 1.55216e-05 0)
15.075        (0.983241 1.5521e-05 0)
15.076        (0.983242 1.55204e-05 0)
15.077        (0.983242 1.55198e-05 0)
15.078        (0.983242 1.55192e-05 0)
15.079        (0.983242 1.55187e-05 0)
15.08         (0.983243 1.55181e-05 0)
15.081        (0.983243 1.55175e-05 0)
15.082        (0.983243 1.55169e-05 0)
15.083        (0.983243 1.55163e-05 0)
15.084        (0.983244 1.55158e-05 0)
15.085        (0.983244 1.55152e-05 0)
15.086        (0.983244 1.55146e-05 0)
15.087        (0.983244 1.5514e-05 0)
15.088        (0.983245 1.55134e-05 0)
15.089        (0.983245 1.55129e-05 0)
15.09         (0.983245 1.55123e-05 0)
15.091        (0.983245 1.55117e-05 0)
15.092        (0.983246 1.55111e-05 0)
15.093        (0.983246 1.55105e-05 0)
15.094        (0.983246 1.551e-05 0)
15.095        (0.983246 1.55094e-05 0)
15.096        (0.983247 1.55088e-05 0)
15.097        (0.983247 1.55082e-05 0)
15.098        (0.983247 1.55076e-05 0)
15.099        (0.983247 1.5507e-05 0)
15.1          (0.983248 1.55065e-05 0)
15.101        (0.983248 1.55059e-05 0)
15.102        (0.983248 1.55053e-05 0)
15.103        (0.983248 1.55047e-05 0)
15.104        (0.983249 1.55041e-05 0)
15.105        (0.983249 1.55035e-05 0)
15.106        (0.983249 1.5503e-05 0)
15.107        (0.983249 1.55024e-05 0)
15.108        (0.98325 1.55018e-05 0)
15.109        (0.98325 1.55012e-05 0)
15.11         (0.98325 1.55006e-05 0)
15.111        (0.98325 1.55e-05 0)
15.112        (0.983251 1.54994e-05 0)
15.113        (0.983251 1.54989e-05 0)
15.114        (0.983251 1.54983e-05 0)
15.115        (0.983251 1.54977e-05 0)
15.116        (0.983251 1.54971e-05 0)
15.117        (0.983252 1.54966e-05 0)
15.118        (0.983252 1.5496e-05 0)
15.119        (0.983252 1.54954e-05 0)
15.12         (0.983252 1.54948e-05 0)
15.121        (0.983253 1.54942e-05 0)
15.122        (0.983253 1.54936e-05 0)
15.123        (0.983253 1.54931e-05 0)
15.124        (0.983253 1.54925e-05 0)
15.125        (0.983254 1.54919e-05 0)
15.126        (0.983254 1.54913e-05 0)
15.127        (0.983254 1.54907e-05 0)
15.128        (0.983254 1.54902e-05 0)
15.129        (0.983255 1.54896e-05 0)
15.13         (0.983255 1.5489e-05 0)
15.131        (0.983255 1.54884e-05 0)
15.132        (0.983255 1.54878e-05 0)
15.133        (0.983256 1.54872e-05 0)
15.134        (0.983256 1.54867e-05 0)
15.135        (0.983256 1.54861e-05 0)
15.136        (0.983256 1.54855e-05 0)
15.137        (0.983257 1.54849e-05 0)
15.138        (0.983257 1.54843e-05 0)
15.139        (0.983257 1.54838e-05 0)
15.14         (0.983257 1.54832e-05 0)
15.141        (0.983258 1.54826e-05 0)
15.142        (0.983258 1.5482e-05 0)
15.143        (0.983258 1.54814e-05 0)
15.144        (0.983258 1.54809e-05 0)
15.145        (0.983259 1.54803e-05 0)
15.146        (0.983259 1.54797e-05 0)
15.147        (0.983259 1.54791e-05 0)
15.148        (0.983259 1.54786e-05 0)
15.149        (0.98326 1.5478e-05 0)
15.15         (0.98326 1.54774e-05 0)
15.151        (0.98326 1.54768e-05 0)
15.152        (0.98326 1.54762e-05 0)
15.153        (0.983261 1.54757e-05 0)
15.154        (0.983261 1.54751e-05 0)
15.155        (0.983261 1.54745e-05 0)
15.156        (0.983261 1.54739e-05 0)
15.157        (0.983262 1.54733e-05 0)
15.158        (0.983262 1.54728e-05 0)
15.159        (0.983262 1.54722e-05 0)
15.16         (0.983262 1.54716e-05 0)
15.161        (0.983263 1.5471e-05 0)
15.162        (0.983263 1.54705e-05 0)
15.163        (0.983263 1.54699e-05 0)
15.164        (0.983263 1.54693e-05 0)
15.165        (0.983264 1.54687e-05 0)
15.166        (0.983264 1.54681e-05 0)
15.167        (0.983264 1.54676e-05 0)
15.168        (0.983264 1.5467e-05 0)
15.169        (0.983265 1.54664e-05 0)
15.17         (0.983265 1.54658e-05 0)
15.171        (0.983265 1.54653e-05 0)
15.172        (0.983265 1.54647e-05 0)
15.173        (0.983265 1.54641e-05 0)
15.174        (0.983266 1.54635e-05 0)
15.175        (0.983266 1.54629e-05 0)
15.176        (0.983266 1.54624e-05 0)
15.177        (0.983266 1.54618e-05 0)
15.178        (0.983267 1.54612e-05 0)
15.179        (0.983267 1.54606e-05 0)
15.18         (0.983267 1.54601e-05 0)
15.181        (0.983267 1.54595e-05 0)
15.182        (0.983268 1.54589e-05 0)
15.183        (0.983268 1.54583e-05 0)
15.184        (0.983268 1.54577e-05 0)
15.185        (0.983268 1.54572e-05 0)
15.186        (0.983269 1.54566e-05 0)
15.187        (0.983269 1.5456e-05 0)
15.188        (0.983269 1.54554e-05 0)
15.189        (0.983269 1.54549e-05 0)
15.19         (0.98327 1.54543e-05 0)
15.191        (0.98327 1.54537e-05 0)
15.192        (0.98327 1.54531e-05 0)
15.193        (0.98327 1.54526e-05 0)
15.194        (0.983271 1.5452e-05 0)
15.195        (0.983271 1.54514e-05 0)
15.196        (0.983271 1.54508e-05 0)
15.197        (0.983271 1.54502e-05 0)
15.198        (0.983272 1.54497e-05 0)
15.199        (0.983272 1.54491e-05 0)
15.2          (0.983272 1.54485e-05 0)
15.201        (0.983272 1.54479e-05 0)
15.202        (0.983273 1.54474e-05 0)
15.203        (0.983273 1.54468e-05 0)
15.204        (0.983273 1.54462e-05 0)
15.205        (0.983273 1.54456e-05 0)
15.206        (0.983274 1.54451e-05 0)
15.207        (0.983274 1.54445e-05 0)
15.208        (0.983274 1.54439e-05 0)
15.209        (0.983274 1.54433e-05 0)
15.21         (0.983275 1.54428e-05 0)
15.211        (0.983275 1.54422e-05 0)
15.212        (0.983275 1.54416e-05 0)
15.213        (0.983275 1.5441e-05 0)
15.214        (0.983276 1.54405e-05 0)
15.215        (0.983276 1.54399e-05 0)
15.216        (0.983276 1.54393e-05 0)
15.217        (0.983276 1.54387e-05 0)
15.218        (0.983276 1.54382e-05 0)
15.219        (0.983277 1.54376e-05 0)
15.22         (0.983277 1.5437e-05 0)
15.221        (0.983277 1.54364e-05 0)
15.222        (0.983277 1.54359e-05 0)
15.223        (0.983278 1.54353e-05 0)
15.224        (0.983278 1.54347e-05 0)
15.225        (0.983278 1.54341e-05 0)
15.226        (0.983278 1.54336e-05 0)
15.227        (0.983279 1.5433e-05 0)
15.228        (0.983279 1.54324e-05 0)
15.229        (0.983279 1.54318e-05 0)
15.23         (0.983279 1.54313e-05 0)
15.231        (0.98328 1.54307e-05 0)
15.232        (0.98328 1.54301e-05 0)
15.233        (0.98328 1.54295e-05 0)
15.234        (0.98328 1.5429e-05 0)
15.235        (0.983281 1.54284e-05 0)
15.236        (0.983281 1.54278e-05 0)
15.237        (0.983281 1.54272e-05 0)
15.238        (0.983281 1.54267e-05 0)
15.239        (0.983282 1.54261e-05 0)
15.24         (0.983282 1.54255e-05 0)
15.241        (0.983282 1.5425e-05 0)
15.242        (0.983282 1.54244e-05 0)
15.243        (0.983283 1.54238e-05 0)
15.244        (0.983283 1.54232e-05 0)
15.245        (0.983283 1.54227e-05 0)
15.246        (0.983283 1.54221e-05 0)
15.247        (0.983284 1.54215e-05 0)
15.248        (0.983284 1.54209e-05 0)
15.249        (0.983284 1.54204e-05 0)
15.25         (0.983284 1.54198e-05 0)
15.251        (0.983285 1.54192e-05 0)
15.252        (0.983285 1.54187e-05 0)
15.253        (0.983285 1.54181e-05 0)
15.254        (0.983285 1.54175e-05 0)
15.255        (0.983285 1.54169e-05 0)
15.256        (0.983286 1.54164e-05 0)
15.257        (0.983286 1.54158e-05 0)
15.258        (0.983286 1.54152e-05 0)
15.259        (0.983286 1.54147e-05 0)
15.26         (0.983287 1.54141e-05 0)
15.261        (0.983287 1.54135e-05 0)
15.262        (0.983287 1.54129e-05 0)
15.263        (0.983287 1.54124e-05 0)
15.264        (0.983288 1.54118e-05 0)
15.265        (0.983288 1.54112e-05 0)
15.266        (0.983288 1.54106e-05 0)
15.267        (0.983288 1.54101e-05 0)
15.268        (0.983289 1.54095e-05 0)
15.269        (0.983289 1.54089e-05 0)
15.27         (0.983289 1.54084e-05 0)
15.271        (0.983289 1.54078e-05 0)
15.272        (0.98329 1.54072e-05 0)
15.273        (0.98329 1.54066e-05 0)
15.274        (0.98329 1.54061e-05 0)
15.275        (0.98329 1.54055e-05 0)
15.276        (0.983291 1.54049e-05 0)
15.277        (0.983291 1.54044e-05 0)
15.278        (0.983291 1.54038e-05 0)
15.279        (0.983291 1.54032e-05 0)
15.28         (0.983292 1.54026e-05 0)
15.281        (0.983292 1.54021e-05 0)
15.282        (0.983292 1.54015e-05 0)
15.283        (0.983292 1.54009e-05 0)
15.284        (0.983292 1.54004e-05 0)
15.285        (0.983293 1.53998e-05 0)
15.286        (0.983293 1.53992e-05 0)
15.287        (0.983293 1.53986e-05 0)
15.288        (0.983293 1.53981e-05 0)
15.289        (0.983294 1.53975e-05 0)
15.29         (0.983294 1.53969e-05 0)
15.291        (0.983294 1.53964e-05 0)
15.292        (0.983294 1.53958e-05 0)
15.293        (0.983295 1.53952e-05 0)
15.294        (0.983295 1.53947e-05 0)
15.295        (0.983295 1.53941e-05 0)
15.296        (0.983295 1.53935e-05 0)
15.297        (0.983296 1.53929e-05 0)
15.298        (0.983296 1.53924e-05 0)
15.299        (0.983296 1.53918e-05 0)
15.3          (0.983296 1.53912e-05 0)
15.301        (0.983297 1.53907e-05 0)
15.302        (0.983297 1.53901e-05 0)
15.303        (0.983297 1.53895e-05 0)
15.304        (0.983297 1.53889e-05 0)
15.305        (0.983298 1.53884e-05 0)
15.306        (0.983298 1.53878e-05 0)
15.307        (0.983298 1.53872e-05 0)
15.308        (0.983298 1.53866e-05 0)
15.309        (0.983299 1.53861e-05 0)
15.31         (0.983299 1.53855e-05 0)
15.311        (0.983299 1.53849e-05 0)
15.312        (0.983299 1.53844e-05 0)
15.313        (0.983299 1.53838e-05 0)
15.314        (0.9833 1.53832e-05 0)
15.315        (0.9833 1.53827e-05 0)
15.316        (0.9833 1.53821e-05 0)
15.317        (0.9833 1.53815e-05 0)
15.318        (0.983301 1.5381e-05 0)
15.319        (0.983301 1.53804e-05 0)
15.32         (0.983301 1.53798e-05 0)
15.321        (0.983301 1.53792e-05 0)
15.322        (0.983302 1.53787e-05 0)
15.323        (0.983302 1.53781e-05 0)
15.324        (0.983302 1.53775e-05 0)
15.325        (0.983302 1.5377e-05 0)
15.326        (0.983303 1.53764e-05 0)
15.327        (0.983303 1.53758e-05 0)
15.328        (0.983303 1.53753e-05 0)
15.329        (0.983303 1.53747e-05 0)
15.33         (0.983304 1.53741e-05 0)
15.331        (0.983304 1.53736e-05 0)
15.332        (0.983304 1.5373e-05 0)
15.333        (0.983304 1.53724e-05 0)
15.334        (0.983305 1.53718e-05 0)
15.335        (0.983305 1.53713e-05 0)
15.336        (0.983305 1.53707e-05 0)
15.337        (0.983305 1.53701e-05 0)
15.338        (0.983305 1.53696e-05 0)
15.339        (0.983306 1.5369e-05 0)
15.34         (0.983306 1.53684e-05 0)
15.341        (0.983306 1.53679e-05 0)
15.342        (0.983306 1.53673e-05 0)
15.343        (0.983307 1.53667e-05 0)
15.344        (0.983307 1.53661e-05 0)
15.345        (0.983307 1.53656e-05 0)
15.346        (0.983307 1.5365e-05 0)
15.347        (0.983308 1.53644e-05 0)
15.348        (0.983308 1.53639e-05 0)
15.349        (0.983308 1.53633e-05 0)
15.35         (0.983308 1.53627e-05 0)
15.351        (0.983309 1.53622e-05 0)
15.352        (0.983309 1.53616e-05 0)
15.353        (0.983309 1.5361e-05 0)
15.354        (0.983309 1.53605e-05 0)
15.355        (0.98331 1.53599e-05 0)
15.356        (0.98331 1.53593e-05 0)
15.357        (0.98331 1.53588e-05 0)
15.358        (0.98331 1.53582e-05 0)
15.359        (0.98331 1.53576e-05 0)
15.36         (0.983311 1.53571e-05 0)
15.361        (0.983311 1.53565e-05 0)
15.362        (0.983311 1.53559e-05 0)
15.363        (0.983311 1.53554e-05 0)
15.364        (0.983312 1.53548e-05 0)
15.365        (0.983312 1.53542e-05 0)
15.366        (0.983312 1.53537e-05 0)
15.367        (0.983312 1.53531e-05 0)
15.368        (0.983313 1.53525e-05 0)
15.369        (0.983313 1.5352e-05 0)
15.37         (0.983313 1.53514e-05 0)
15.371        (0.983313 1.53508e-05 0)
15.372        (0.983314 1.53502e-05 0)
15.373        (0.983314 1.53497e-05 0)
15.374        (0.983314 1.53491e-05 0)
15.375        (0.983314 1.53485e-05 0)
15.376        (0.983315 1.5348e-05 0)
15.377        (0.983315 1.53474e-05 0)
15.378        (0.983315 1.53469e-05 0)
15.379        (0.983315 1.53463e-05 0)
15.38         (0.983316 1.53457e-05 0)
15.381        (0.983316 1.53452e-05 0)
15.382        (0.983316 1.53446e-05 0)
15.383        (0.983316 1.5344e-05 0)
15.384        (0.983316 1.53434e-05 0)
15.385        (0.983317 1.53429e-05 0)
15.386        (0.983317 1.53423e-05 0)
15.387        (0.983317 1.53417e-05 0)
15.388        (0.983317 1.53412e-05 0)
15.389        (0.983318 1.53406e-05 0)
15.39         (0.983318 1.534e-05 0)
15.391        (0.983318 1.53395e-05 0)
15.392        (0.983318 1.53389e-05 0)
15.393        (0.983319 1.53384e-05 0)
15.394        (0.983319 1.53378e-05 0)
15.395        (0.983319 1.53372e-05 0)
15.396        (0.983319 1.53367e-05 0)
15.397        (0.98332 1.53361e-05 0)
15.398        (0.98332 1.53355e-05 0)
15.399        (0.98332 1.5335e-05 0)
15.4          (0.98332 1.53344e-05 0)
15.401        (0.983321 1.53338e-05 0)
15.402        (0.983321 1.53333e-05 0)
15.403        (0.983321 1.53327e-05 0)
15.404        (0.983321 1.53321e-05 0)
15.405        (0.983321 1.53316e-05 0)
15.406        (0.983322 1.5331e-05 0)
15.407        (0.983322 1.53304e-05 0)
15.408        (0.983322 1.53299e-05 0)
15.409        (0.983322 1.53293e-05 0)
15.41         (0.983323 1.53287e-05 0)
15.411        (0.983323 1.53282e-05 0)
15.412        (0.983323 1.53276e-05 0)
15.413        (0.983323 1.5327e-05 0)
15.414        (0.983324 1.53265e-05 0)
15.415        (0.983324 1.53259e-05 0)
15.416        (0.983324 1.53253e-05 0)
15.417        (0.983324 1.53248e-05 0)
15.418        (0.983325 1.53242e-05 0)
15.419        (0.983325 1.53237e-05 0)
15.42         (0.983325 1.53231e-05 0)
15.421        (0.983325 1.53225e-05 0)
15.422        (0.983325 1.53219e-05 0)
15.423        (0.983326 1.53214e-05 0)
15.424        (0.983326 1.53208e-05 0)
15.425        (0.983326 1.53203e-05 0)
15.426        (0.983326 1.53197e-05 0)
15.427        (0.983327 1.53191e-05 0)
15.428        (0.983327 1.53186e-05 0)
15.429        (0.983327 1.5318e-05 0)
15.43         (0.983327 1.53174e-05 0)
15.431        (0.983328 1.53169e-05 0)
15.432        (0.983328 1.53163e-05 0)
15.433        (0.983328 1.53157e-05 0)
15.434        (0.983328 1.53152e-05 0)
15.435        (0.983329 1.53146e-05 0)
15.436        (0.983329 1.53141e-05 0)
15.437        (0.983329 1.53135e-05 0)
15.438        (0.983329 1.53129e-05 0)
15.439        (0.98333 1.53123e-05 0)
15.44         (0.98333 1.53118e-05 0)
15.441        (0.98333 1.53112e-05 0)
15.442        (0.98333 1.53107e-05 0)
15.443        (0.98333 1.53101e-05 0)
15.444        (0.983331 1.53095e-05 0)
15.445        (0.983331 1.5309e-05 0)
15.446        (0.983331 1.53084e-05 0)
15.447        (0.983331 1.53078e-05 0)
15.448        (0.983332 1.53073e-05 0)
15.449        (0.983332 1.53067e-05 0)
15.45         (0.983332 1.53062e-05 0)
15.451        (0.983332 1.53056e-05 0)
15.452        (0.983333 1.5305e-05 0)
15.453        (0.983333 1.53045e-05 0)
15.454        (0.983333 1.53039e-05 0)
15.455        (0.983333 1.53033e-05 0)
15.456        (0.983334 1.53028e-05 0)
15.457        (0.983334 1.53022e-05 0)
15.458        (0.983334 1.53016e-05 0)
15.459        (0.983334 1.53011e-05 0)
15.46         (0.983334 1.53005e-05 0)
15.461        (0.983335 1.53e-05 0)
15.462        (0.983335 1.52994e-05 0)
15.463        (0.983335 1.52988e-05 0)
15.464        (0.983335 1.52983e-05 0)
15.465        (0.983336 1.52977e-05 0)
15.466        (0.983336 1.52971e-05 0)
15.467        (0.983336 1.52966e-05 0)
15.468        (0.983336 1.5296e-05 0)
15.469        (0.983337 1.52955e-05 0)
15.47         (0.983337 1.52949e-05 0)
15.471        (0.983337 1.52943e-05 0)
15.472        (0.983337 1.52938e-05 0)
15.473        (0.983338 1.52932e-05 0)
15.474        (0.983338 1.52926e-05 0)
15.475        (0.983338 1.52921e-05 0)
15.476        (0.983338 1.52915e-05 0)
15.477        (0.983338 1.5291e-05 0)
15.478        (0.983339 1.52904e-05 0)
15.479        (0.983339 1.52898e-05 0)
15.48         (0.983339 1.52893e-05 0)
15.481        (0.983339 1.52887e-05 0)
15.482        (0.98334 1.52881e-05 0)
15.483        (0.98334 1.52876e-05 0)
15.484        (0.98334 1.5287e-05 0)
15.485        (0.98334 1.52865e-05 0)
15.486        (0.983341 1.52859e-05 0)
15.487        (0.983341 1.52853e-05 0)
15.488        (0.983341 1.52848e-05 0)
15.489        (0.983341 1.52842e-05 0)
15.49         (0.983342 1.52836e-05 0)
15.491        (0.983342 1.52831e-05 0)
15.492        (0.983342 1.52826e-05 0)
15.493        (0.983342 1.5282e-05 0)
15.494        (0.983342 1.52814e-05 0)
15.495        (0.983343 1.52808e-05 0)
15.496        (0.983343 1.52803e-05 0)
15.497        (0.983343 1.52797e-05 0)
15.498        (0.983343 1.52792e-05 0)
15.499        (0.983344 1.52786e-05 0)
15.5          (0.983344 1.5278e-05 0)
15.501        (0.983344 1.52775e-05 0)
15.502        (0.983344 1.52769e-05 0)
15.503        (0.983345 1.52764e-05 0)
15.504        (0.983345 1.52758e-05 0)
15.505        (0.983345 1.52752e-05 0)
15.506        (0.983345 1.52747e-05 0)
15.507        (0.983346 1.52741e-05 0)
15.508        (0.983346 1.52736e-05 0)
15.509        (0.983346 1.5273e-05 0)
15.51         (0.983346 1.52724e-05 0)
15.511        (0.983346 1.52719e-05 0)
15.512        (0.983347 1.52713e-05 0)
15.513        (0.983347 1.52708e-05 0)
15.514        (0.983347 1.52702e-05 0)
15.515        (0.983347 1.52696e-05 0)
15.516        (0.983348 1.52691e-05 0)
15.517        (0.983348 1.52685e-05 0)
15.518        (0.983348 1.5268e-05 0)
15.519        (0.983348 1.52674e-05 0)
15.52         (0.983349 1.52668e-05 0)
15.521        (0.983349 1.52663e-05 0)
15.522        (0.983349 1.52657e-05 0)
15.523        (0.983349 1.52652e-05 0)
15.524        (0.98335 1.52646e-05 0)
15.525        (0.98335 1.5264e-05 0)
15.526        (0.98335 1.52635e-05 0)
15.527        (0.98335 1.52629e-05 0)
15.528        (0.98335 1.52624e-05 0)
15.529        (0.983351 1.52618e-05 0)
15.53         (0.983351 1.52612e-05 0)
15.531        (0.983351 1.52607e-05 0)
15.532        (0.983351 1.52601e-05 0)
15.533        (0.983352 1.52596e-05 0)
15.534        (0.983352 1.5259e-05 0)
15.535        (0.983352 1.52584e-05 0)
15.536        (0.983352 1.52579e-05 0)
15.537        (0.983353 1.52573e-05 0)
15.538        (0.983353 1.52568e-05 0)
15.539        (0.983353 1.52562e-05 0)
15.54         (0.983353 1.52556e-05 0)
15.541        (0.983353 1.52551e-05 0)
15.542        (0.983354 1.52545e-05 0)
15.543        (0.983354 1.5254e-05 0)
15.544        (0.983354 1.52534e-05 0)
15.545        (0.983354 1.52529e-05 0)
15.546        (0.983355 1.52523e-05 0)
15.547        (0.983355 1.52517e-05 0)
15.548        (0.983355 1.52512e-05 0)
15.549        (0.983355 1.52506e-05 0)
15.55         (0.983356 1.52501e-05 0)
15.551        (0.983356 1.52495e-05 0)
15.552        (0.983356 1.52489e-05 0)
15.553        (0.983356 1.52484e-05 0)
15.554        (0.983357 1.52478e-05 0)
15.555        (0.983357 1.52473e-05 0)
15.556        (0.983357 1.52467e-05 0)
15.557        (0.983357 1.52462e-05 0)
15.558        (0.983357 1.52456e-05 0)
15.559        (0.983358 1.5245e-05 0)
15.56         (0.983358 1.52445e-05 0)
15.561        (0.983358 1.52439e-05 0)
15.562        (0.983358 1.52434e-05 0)
15.563        (0.983359 1.52428e-05 0)
15.564        (0.983359 1.52422e-05 0)
15.565        (0.983359 1.52417e-05 0)
15.566        (0.983359 1.52411e-05 0)
15.567        (0.98336 1.52406e-05 0)
15.568        (0.98336 1.524e-05 0)
15.569        (0.98336 1.52395e-05 0)
15.57         (0.98336 1.52389e-05 0)
15.571        (0.98336 1.52383e-05 0)
15.572        (0.983361 1.52378e-05 0)
15.573        (0.983361 1.52372e-05 0)
15.574        (0.983361 1.52367e-05 0)
15.575        (0.983361 1.52361e-05 0)
15.576        (0.983362 1.52356e-05 0)
15.577        (0.983362 1.5235e-05 0)
15.578        (0.983362 1.52344e-05 0)
15.579        (0.983362 1.52339e-05 0)
15.58         (0.983363 1.52333e-05 0)
15.581        (0.983363 1.52328e-05 0)
15.582        (0.983363 1.52322e-05 0)
15.583        (0.983363 1.52317e-05 0)
15.584        (0.983364 1.52311e-05 0)
15.585        (0.983364 1.52305e-05 0)
15.586        (0.983364 1.523e-05 0)
15.587        (0.983364 1.52294e-05 0)
15.588        (0.983364 1.52289e-05 0)
15.589        (0.983365 1.52283e-05 0)
15.59         (0.983365 1.52278e-05 0)
15.591        (0.983365 1.52272e-05 0)
15.592        (0.983365 1.52266e-05 0)
15.593        (0.983366 1.52261e-05 0)
15.594        (0.983366 1.52255e-05 0)
15.595        (0.983366 1.5225e-05 0)
15.596        (0.983366 1.52244e-05 0)
15.597        (0.983367 1.52239e-05 0)
15.598        (0.983367 1.52233e-05 0)
15.599        (0.983367 1.52228e-05 0)
15.6          (0.983367 1.52222e-05 0)
15.601        (0.983367 1.52216e-05 0)
15.602        (0.983368 1.52211e-05 0)
15.603        (0.983368 1.52205e-05 0)
15.604        (0.983368 1.522e-05 0)
15.605        (0.983368 1.52194e-05 0)
15.606        (0.983369 1.52189e-05 0)
15.607        (0.983369 1.52183e-05 0)
15.608        (0.983369 1.52178e-05 0)
15.609        (0.983369 1.52172e-05 0)
15.61         (0.98337 1.52166e-05 0)
15.611        (0.98337 1.52161e-05 0)
15.612        (0.98337 1.52155e-05 0)
15.613        (0.98337 1.5215e-05 0)
15.614        (0.98337 1.52144e-05 0)
15.615        (0.983371 1.52139e-05 0)
15.616        (0.983371 1.52133e-05 0)
15.617        (0.983371 1.52128e-05 0)
15.618        (0.983371 1.52122e-05 0)
15.619        (0.983372 1.52117e-05 0)
15.62         (0.983372 1.52111e-05 0)
15.621        (0.983372 1.52105e-05 0)
15.622        (0.983372 1.521e-05 0)
15.623        (0.983373 1.52094e-05 0)
15.624        (0.983373 1.52089e-05 0)
15.625        (0.983373 1.52083e-05 0)
15.626        (0.983373 1.52078e-05 0)
15.627        (0.983373 1.52072e-05 0)
15.628        (0.983374 1.52067e-05 0)
15.629        (0.983374 1.52061e-05 0)
15.63         (0.983374 1.52055e-05 0)
15.631        (0.983374 1.5205e-05 0)
15.632        (0.983375 1.52044e-05 0)
15.633        (0.983375 1.52039e-05 0)
15.634        (0.983375 1.52033e-05 0)
15.635        (0.983375 1.52028e-05 0)
15.636        (0.983376 1.52022e-05 0)
15.637        (0.983376 1.52017e-05 0)
15.638        (0.983376 1.52011e-05 0)
15.639        (0.983376 1.52005e-05 0)
15.64         (0.983376 1.52e-05 0)
15.641        (0.983377 1.51994e-05 0)
15.642        (0.983377 1.51989e-05 0)
15.643        (0.983377 1.51983e-05 0)
15.644        (0.983377 1.51978e-05 0)
15.645        (0.983378 1.51972e-05 0)
15.646        (0.983378 1.51967e-05 0)
15.647        (0.983378 1.51961e-05 0)
15.648        (0.983378 1.51956e-05 0)
15.649        (0.983379 1.5195e-05 0)
15.65         (0.983379 1.51945e-05 0)
15.651        (0.983379 1.51939e-05 0)
15.652        (0.983379 1.51933e-05 0)
15.653        (0.983379 1.51928e-05 0)
15.654        (0.98338 1.51922e-05 0)
15.655        (0.98338 1.51917e-05 0)
15.656        (0.98338 1.51911e-05 0)
15.657        (0.98338 1.51906e-05 0)
15.658        (0.983381 1.519e-05 0)
15.659        (0.983381 1.51895e-05 0)
15.66         (0.983381 1.51889e-05 0)
15.661        (0.983381 1.51884e-05 0)
15.662        (0.983382 1.51878e-05 0)
15.663        (0.983382 1.51873e-05 0)
15.664        (0.983382 1.51867e-05 0)
15.665        (0.983382 1.51862e-05 0)
15.666        (0.983382 1.51856e-05 0)
15.667        (0.983383 1.51851e-05 0)
15.668        (0.983383 1.51845e-05 0)
15.669        (0.983383 1.5184e-05 0)
15.67         (0.983383 1.51834e-05 0)
15.671        (0.983384 1.51828e-05 0)
15.672        (0.983384 1.51823e-05 0)
15.673        (0.983384 1.51817e-05 0)
15.674        (0.983384 1.51812e-05 0)
15.675        (0.983385 1.51806e-05 0)
15.676        (0.983385 1.51801e-05 0)
15.677        (0.983385 1.51795e-05 0)
15.678        (0.983385 1.5179e-05 0)
15.679        (0.983385 1.51784e-05 0)
15.68         (0.983386 1.51779e-05 0)
15.681        (0.983386 1.51773e-05 0)
15.682        (0.983386 1.51768e-05 0)
15.683        (0.983386 1.51762e-05 0)
15.684        (0.983387 1.51757e-05 0)
15.685        (0.983387 1.51751e-05 0)
15.686        (0.983387 1.51746e-05 0)
15.687        (0.983387 1.5174e-05 0)
15.688        (0.983388 1.51735e-05 0)
15.689        (0.983388 1.51729e-05 0)
15.69         (0.983388 1.51724e-05 0)
15.691        (0.983388 1.51718e-05 0)
15.692        (0.983388 1.51713e-05 0)
15.693        (0.983389 1.51707e-05 0)
15.694        (0.983389 1.51702e-05 0)
15.695        (0.983389 1.51696e-05 0)
15.696        (0.983389 1.51691e-05 0)
15.697        (0.98339 1.51685e-05 0)
15.698        (0.98339 1.51679e-05 0)
15.699        (0.98339 1.51674e-05 0)
15.7          (0.98339 1.51669e-05 0)
15.701        (0.98339 1.51663e-05 0)
15.702        (0.983391 1.51657e-05 0)
15.703        (0.983391 1.51652e-05 0)
15.704        (0.983391 1.51646e-05 0)
15.705        (0.983391 1.51641e-05 0)
15.706        (0.983392 1.51635e-05 0)
15.707        (0.983392 1.5163e-05 0)
15.708        (0.983392 1.51624e-05 0)
15.709        (0.983392 1.51619e-05 0)
15.71         (0.983393 1.51614e-05 0)
15.711        (0.983393 1.51608e-05 0)
15.712        (0.983393 1.51602e-05 0)
15.713        (0.983393 1.51597e-05 0)
15.714        (0.983393 1.51591e-05 0)
15.715        (0.983394 1.51586e-05 0)
15.716        (0.983394 1.5158e-05 0)
15.717        (0.983394 1.51575e-05 0)
15.718        (0.983394 1.51569e-05 0)
15.719        (0.983395 1.51564e-05 0)
15.72         (0.983395 1.51558e-05 0)
15.721        (0.983395 1.51553e-05 0)
15.722        (0.983395 1.51547e-05 0)
15.723        (0.983396 1.51542e-05 0)
15.724        (0.983396 1.51536e-05 0)
15.725        (0.983396 1.51531e-05 0)
15.726        (0.983396 1.51525e-05 0)
15.727        (0.983396 1.5152e-05 0)
15.728        (0.983397 1.51514e-05 0)
15.729        (0.983397 1.51509e-05 0)
15.73         (0.983397 1.51503e-05 0)
15.731        (0.983397 1.51498e-05 0)
15.732        (0.983398 1.51492e-05 0)
15.733        (0.983398 1.51487e-05 0)
15.734        (0.983398 1.51481e-05 0)
15.735        (0.983398 1.51476e-05 0)
15.736        (0.983398 1.5147e-05 0)
15.737        (0.983399 1.51465e-05 0)
15.738        (0.983399 1.51459e-05 0)
15.739        (0.983399 1.51454e-05 0)
15.74         (0.983399 1.51448e-05 0)
15.741        (0.9834 1.51443e-05 0)
15.742        (0.9834 1.51438e-05 0)
15.743        (0.9834 1.51432e-05 0)
15.744        (0.9834 1.51427e-05 0)
15.745        (0.983401 1.51421e-05 0)
15.746        (0.983401 1.51416e-05 0)
15.747        (0.983401 1.5141e-05 0)
15.748        (0.983401 1.51405e-05 0)
15.749        (0.983401 1.51399e-05 0)
15.75         (0.983402 1.51394e-05 0)
15.751        (0.983402 1.51388e-05 0)
15.752        (0.983402 1.51383e-05 0)
15.753        (0.983402 1.51377e-05 0)
15.754        (0.983403 1.51372e-05 0)
15.755        (0.983403 1.51366e-05 0)
15.756        (0.983403 1.51361e-05 0)
15.757        (0.983403 1.51355e-05 0)
15.758        (0.983403 1.5135e-05 0)
15.759        (0.983404 1.51344e-05 0)
15.76         (0.983404 1.51339e-05 0)
15.761        (0.983404 1.51333e-05 0)
15.762        (0.983404 1.51328e-05 0)
15.763        (0.983405 1.51322e-05 0)
15.764        (0.983405 1.51317e-05 0)
15.765        (0.983405 1.51311e-05 0)
15.766        (0.983405 1.51306e-05 0)
15.767        (0.983406 1.51301e-05 0)
15.768        (0.983406 1.51295e-05 0)
15.769        (0.983406 1.5129e-05 0)
15.77         (0.983406 1.51284e-05 0)
15.771        (0.983406 1.51279e-05 0)
15.772        (0.983407 1.51273e-05 0)