/*--------------------------------*- C++ -*----------------------------------*\
| =========                 |                                                 |
| \\      /  F ield         | OpenFOAM: The Open Source CFD Toolbox           |
|  \\    /   O peration     | Version:  2412                                  |
|   \\  /    A nd           | Website:  www.openfoam.com                      |
|    \\/     M anipulation  |                                                 |
\*---------------------------------------------------------------------------*/
FoamFile
{
    version     2.0;
    format      ascii;
    arch        "LSB;label=32;scalar=64";
    class       volScalarField;
    location    "0.01";
    object      p;
}
// * * * * * * * * * * * * * * * * * * * * * * * * * * * * * * * * * * * * * //

dimensions      [0 2 -2 0 0 0 0];

internalField   nonuniform List<scalar> 
257400
(
0.389328
0.220263
0.0567554
-0.0814865
-0.19062
-0.271757
-0.330006
-0.369243
-0.39654
-0.41556
-0.428171
-0.436505
-0.441318
-0.444741
-0.445218
-0.444679
-0.441805
-0.438623
-0.434602
-0.429919
-0.424666
-0.418911
-0.413354
-0.407199
-0.401368
-0.395311
-0.389571
-0.384051
-0.378556
-0.373653
-0.368702
-0.364309
-0.360218
-0.356047
-0.352103
-0.348508
-0.344759
-0.341459
-0.338358
-0.335278
-0.332075
-0.32881
-0.325887
-0.322877
-0.319907
-0.317224
-0.314596
-0.311952
-0.309126
-0.306342
-0.303803
-0.301301
-0.298664
-0.29598
-0.293554
-0.29118
-0.28875
-0.286128
-0.283767
-0.281484
-0.278989
-0.276677
-0.274501
-0.272334
-0.270036
-0.267661
-0.265476
-0.263145
-0.261237
-0.258852
-0.256748
-0.25471
-0.252489
-0.250398
-0.248156
-0.246082
-0.243923
-0.241804
-0.239757
-0.237616
0.391678
0.270527
0.135788
0.0108901
-0.100039
-0.192485
-0.265765
-0.319773
-0.359144
-0.387474
-0.407193
-0.420933
-0.429723
-0.43593
-0.43875
-0.44025
-0.439405
-0.437376
-0.434311
-0.430683
-0.426438
-0.421397
-0.4163
-0.410453
-0.404765
-0.398757
-0.392927
-0.387278
-0.381595
-0.37645
-0.37127
-0.36658
-0.362261
-0.357947
-0.353831
-0.350081
-0.34622
-0.342732
-0.339473
-0.336315
-0.333107
-0.329819
-0.326817
-0.323773
-0.320744
-0.317952
-0.315241
-0.312567
-0.309764
-0.306961
-0.304346
-0.301795
-0.299165
-0.296473
-0.293977
-0.291542
-0.289103
-0.286499
-0.284082
-0.281762
-0.279278
-0.276921
-0.274676
-0.272462
-0.270168
-0.267797
-0.265594
-0.263242
-0.261255
-0.258904
-0.256745
-0.254667
-0.252439
-0.250324
-0.248084
-0.245975
-0.243804
-0.241646
-0.239554
-0.23736
0.403067
0.307232
0.19517
0.0809518
-0.0258676
-0.121687
-0.203432
-0.268454
-0.318329
-0.355624
-0.382636
-0.402035
-0.415231
-0.424911
-0.430662
-0.434348
-0.435407
-0.434939
-0.432859
-0.429945
-0.426302
-0.421755
-0.417066
-0.411567
-0.406085
-0.400226
-0.394422
-0.388753
-0.383012
-0.377739
-0.372453
-0.367584
-0.363098
-0.358686
-0.354459
-0.3506
-0.34668
-0.343076
-0.3397
-0.336459
-0.333234
-0.329938
-0.326883
-0.323819
-0.320762
-0.3179
-0.315122
-0.312408
-0.309614
-0.30681
-0.304147
-0.301555
-0.298923
-0.296236
-0.293698
-0.291218
-0.288764
-0.286182
-0.283729
-0.281379
-0.278907
-0.276526
-0.274239
-0.27199
-0.269701
-0.267337
-0.265123
-0.262769
-0.260722
-0.258407
-0.25622
-0.254119
-0.251899
-0.249774
-0.24755
-0.24543
-0.243272
-0.241116
-0.239045
-0.236876
0.408108
0.332409
0.246004
0.142698
0.0462238
-0.046164
-0.131072
-0.204238
-0.264139
-0.311415
-0.3474
-0.374307
-0.393511
-0.407739
-0.417218
-0.4238
-0.427272
-0.428743
-0.428322
-0.426466
-0.423885
-0.420193
-0.416118
-0.411123
-0.40597
-0.400365
-0.394678
-0.389052
-0.383312
-0.377953
-0.372597
-0.367588
-0.362946
-0.358438
-0.354114
-0.350145
-0.346175
-0.34248
-0.339
-0.335673
-0.332414
-0.32912
-0.326022
-0.322943
-0.319875
-0.316963
-0.31413
-0.311374
-0.308583
-0.305788
-0.303098
-0.300471
-0.297838
-0.295166
-0.292605
-0.290093
-0.287623
-0.285069
-0.282601
-0.280226
-0.277773
-0.275385
-0.273069
-0.270794
-0.26851
-0.266165
-0.263945
-0.261612
-0.259514
-0.25724
-0.255045
-0.252929
-0.25073
-0.248606
-0.246416
-0.244301
-0.242173
-0.240044
-0.238008
-0.235902
0.405346
0.344359
0.275215
0.196562
0.106311
0.021599
-0.0599828
-0.135575
-0.201683
-0.257058
-0.301608
-0.336526
-0.362738
-0.382639
-0.396893
-0.407332
-0.414034
-0.418104
-0.419903
-0.419477
-0.418186
-0.415608
-0.412383
-0.408126
-0.403505
-0.398339
-0.392944
-0.387506
-0.381904
-0.376569
-0.37124
-0.366186
-0.361455
-0.356894
-0.352518
-0.34847
-0.344477
-0.340726
-0.337178
-0.333786
-0.330499
-0.327217
-0.324096
-0.321016
-0.317959
-0.315024
-0.312162
-0.309378
-0.306596
-0.303821
-0.301125
-0.298484
-0.295859
-0.293215
-0.290652
-0.288129
-0.285654
-0.283134
-0.280673
-0.278288
-0.275862
-0.273484
-0.271161
-0.268875
-0.266603
-0.264289
-0.262072
-0.259777
-0.257648
-0.255417
-0.253235
-0.251117
-0.248951
-0.246843
-0.244697
-0.242607
-0.240522
-0.238442
-0.236454
-0.234428
0.39799
0.347916
0.291651
0.227357
0.151245
0.0760429
0.00170202
-0.0708721
-0.138224
-0.198016
-0.248851
-0.290708
-0.323775
-0.34975
-0.369338
-0.384246
-0.394821
-0.402028
-0.406344
-0.408198
-0.408602
-0.407445
-0.405367
-0.402117
-0.398275
-0.39377
-0.38888
-0.383819
-0.378529
-0.373375
-0.368205
-0.363233
-0.358521
-0.353983
-0.349623
-0.345554
-0.341581
-0.337823
-0.334253
-0.330838
-0.327545
-0.324292
-0.321175
-0.318114
-0.31509
-0.312165
-0.309306
-0.306521
-0.303761
-0.301021
-0.298341
-0.295711
-0.293108
-0.290505
-0.287961
-0.285453
-0.28299
-0.280513
-0.278077
-0.275701
-0.273312
-0.270959
-0.26865
-0.266374
-0.264121
-0.261849
-0.259647
-0.257399
-0.255263
-0.253077
-0.250924
-0.248821
-0.246695
-0.244615
-0.242521
-0.240468
-0.238435
-0.236414
-0.234476
-0.232529
0.388394
0.346462
0.300053
0.248144
0.189582
0.116809
0.0509961
-0.0151426
-0.0795686
-0.139846
-0.193806
-0.240411
-0.279054
-0.310568
-0.335443
-0.354929
-0.369689
-0.380545
-0.388028
-0.392525
-0.394937
-0.395537
-0.394918
-0.392952
-0.390152
-0.386548
-0.382397
-0.377927
-0.373143
-0.368354
-0.363497
-0.358752
-0.35419
-0.349779
-0.345524
-0.341511
-0.337616
-0.333909
-0.330372
-0.326983
-0.323722
-0.320524
-0.317442
-0.314426
-0.311458
-0.308572
-0.305748
-0.302992
-0.300274
-0.297585
-0.294944
-0.292348
-0.289785
-0.287235
-0.28473
-0.282257
-0.279825
-0.277398
-0.275004
-0.272655
-0.270312
-0.267999
-0.26572
-0.26347
-0.261248
-0.259022
-0.256847
-0.254652
-0.25253
-0.250391
-0.248278
-0.246201
-0.244122
-0.242078
-0.240038
-0.238031
-0.236049
-0.234089
-0.232199
-0.230321
0.377853
0.342126
0.303142
0.259845
0.211213
0.156579
0.0903257
0.0301364
-0.0289757
-0.0866844
-0.14074
-0.189533
-0.231818
-0.267618
-0.297072
-0.320882
-0.33965
-0.354225
-0.365122
-0.372614
-0.3774
-0.380076
-0.381194
-0.380765
-0.379259
-0.376786
-0.373595
-0.369928
-0.365843
-0.361604
-0.357223
-0.352856
-0.348584
-0.344415
-0.340364
-0.336499
-0.332749
-0.329158
-0.325714
-0.322405
-0.319218
-0.316107
-0.313095
-0.310152
-0.307264
-0.304445
-0.301683
-0.298984
-0.296329
-0.293706
-0.291124
-0.288582
-0.286076
-0.28359
-0.281139
-0.278718
-0.276333
-0.273965
-0.271624
-0.269318
-0.267028
-0.264764
-0.262527
-0.260317
-0.258135
-0.255961
-0.253823
-0.251682
-0.249589
-0.247499
-0.245431
-0.243392
-0.241361
-0.23936
-0.237372
-0.235413
-0.233483
-0.231579
-0.229734
-0.227913
0.367066
0.336149
0.302827
0.26614
0.225056
0.178568
0.125609
0.0667414
0.0125071
-0.0408326
-0.0926008
-0.141257
-0.185138
-0.223643
-0.256536
-0.283972
-0.306366
-0.32427
-0.338482
-0.349022
-0.356504
-0.361513
-0.36459
-0.365909
-0.365905
-0.364759
-0.362722
-0.360043
-0.356828
-0.353309
-0.349553
-0.345705
-0.341856
-0.338044
-0.334296
-0.33067
-0.327138
-0.323727
-0.320436
-0.317261
-0.314194
-0.311203
-0.308295
-0.305453
-0.302668
-0.29994
-0.297265
-0.294646
-0.292072
-0.289531
-0.287024
-0.284553
-0.282117
-0.279705
-0.277322
-0.274964
-0.27264
-0.270338
-0.268058
-0.265806
-0.263575
-0.261367
-0.259182
-0.257021
-0.254887
-0.252766
-0.250673
-0.248588
-0.246534
-0.244495
-0.242475
-0.240479
-0.238497
-0.236542
-0.234606
-0.232696
-0.230815
-0.228963
-0.227159
-0.225385
0.356415
0.329304
0.300426
0.268935
0.233909
0.194607
0.150693
0.100873
0.0462256
-0.00298809
-0.0511006
-0.0977267
-0.141324
-0.180932
-0.21595
-0.246051
-0.271407
-0.292309
-0.30952
-0.322671
-0.332969
-0.340431
-0.345623
-0.348843
-0.350498
-0.350829
-0.350094
-0.348551
-0.346344
-0.343684
-0.340681
-0.337473
-0.334161
-0.330809
-0.327454
-0.324154
-0.320909
-0.317741
-0.314659
-0.311666
-0.308763
-0.305926
-0.303154
-0.300441
-0.297779
-0.295165
-0.292597
-0.290078
-0.287601
-0.285154
-0.282736
-0.280349
-0.277996
-0.275666
-0.27336
-0.271076
-0.268821
-0.26659
-0.264378
-0.262189
-0.260023
-0.257876
-0.255748
-0.253642
-0.251562
-0.249498
-0.247455
-0.245426
-0.243419
-0.241431
-0.239462
-0.237512
-0.235581
-0.233673
-0.231787
-0.229926
-0.228092
-0.226287
-0.224522
-0.222788
0.346099
0.322057
0.296731
0.269376
0.239174
0.205376
0.16759
0.125771
0.0798622
0.0284172
-0.0167611
-0.0604053
-0.102172
-0.141333
-0.177114
-0.208796
-0.236268
-0.25953
-0.278545
-0.294825
-0.307653
-0.317487
-0.324856
-0.330058
-0.333467
-0.335372
-0.336042
-0.335741
-0.334642
-0.332947
-0.330795
-0.328323
-0.325642
-0.322836
-0.319951
-0.317049
-0.314153
-0.311285
-0.308463
-0.305699
-0.302998
-0.300346
-0.29774
-0.295181
-0.292664
-0.290183
-0.287739
-0.285337
-0.282971
-0.280631
-0.278313
-0.276022
-0.27376
-0.27152
-0.269298
-0.267095
-0.264919
-0.262764
-0.260625
-0.258505
-0.256407
-0.254325
-0.25226
-0.250215
-0.248193
-0.246188
-0.244199
-0.242226
-0.240271
-0.238336
-0.236419
-0.234519
-0.232638
-0.230779
-0.228941
-0.227127
-0.225339
-0.223578
-0.221852
-0.220154
0.336216
0.314687
0.292237
0.268204
0.241843
0.212439
0.179637
0.143218
0.103817
0.0621563
0.0150904
-0.0294324
-0.0690136
-0.10665
-0.141939
-0.174072
-0.202864
-0.227461
-0.24873
-0.266842
-0.281566
-0.293487
-0.302904
-0.310046
-0.315229
-0.31875
-0.320877
-0.321881
-0.321954
-0.321295
-0.320064
-0.318399
-0.31642
-0.314227
-0.311876
-0.309433
-0.306939
-0.30442
-0.301902
-0.299406
-0.296944
-0.294508
-0.292095
-0.289712
-0.287359
-0.285029
-0.282726
-0.280455
-0.278213
-0.275991
-0.273784
-0.271597
-0.269435
-0.267292
-0.265161
-0.263047
-0.260953
-0.25888
-0.256819
-0.254773
-0.252747
-0.250735
-0.248736
-0.246755
-0.244794
-0.24285
-0.24092
-0.239004
-0.237104
-0.235223
-0.233359
-0.23151
-0.22968
-0.22787
-0.226082
-0.224314
-0.22257
-0.220853
-0.219163
-0.217499
0.326807
0.307362
0.287273
0.265947
0.242708
0.216894
0.188158
0.156197
0.121226
0.0837008
0.0449582
0.00534289
-0.0360397
-0.0749893
-0.109678
-0.14153
-0.170009
-0.196465
-0.219549
-0.239015
-0.255474
-0.269183
-0.280361
-0.289288
-0.296177
-0.301291
-0.304881
-0.307211
-0.308489
-0.308906
-0.308639
-0.307828
-0.306602
-0.305071
-0.303303
-0.301368
-0.29932
-0.297192
-0.295016
-0.292824
-0.290631
-0.288437
-0.286242
-0.284058
-0.281887
-0.279725
-0.277577
-0.275451
-0.273345
-0.27125
-0.269163
-0.26709
-0.265036
-0.262996
-0.260963
-0.258941
-0.256937
-0.25495
-0.252971
-0.251004
-0.249053
-0.247114
-0.245185
-0.243271
-0.241375
-0.239494
-0.237624
-0.235768
-0.233924
-0.2321
-0.23029
-0.228493
-0.226715
-0.224955
-0.223214
-0.221493
-0.219794
-0.218118
-0.216466
-0.214836
0.31788
0.300185
0.28206
0.262968
0.242296
0.219434
0.194041
0.165789
0.134764
0.101249
0.0656825
0.0288503
-0.00779042
-0.0430517
-0.0777064
-0.110372
-0.14069
-0.167499
-0.191155
-0.211899
-0.229835
-0.245045
-0.257754
-0.26824
-0.276681
-0.283301
-0.28831
-0.291951
-0.29443
-0.295936
-0.296654
-0.296724
-0.296282
-0.295449
-0.294299
-0.292908
-0.291342
-0.289638
-0.287838
-0.285978
-0.284082
-0.282155
-0.2802
-0.278234
-0.276262
-0.274283
-0.272305
-0.270336
-0.268376
-0.266419
-0.264461
-0.26251
-0.260571
-0.25864
-0.256711
-0.254788
-0.252878
-0.25098
-0.249088
-0.247203
-0.245331
-0.243468
-0.241612
-0.239768
-0.23794
-0.236124
-0.234317
-0.232522
-0.230737
-0.22897
-0.227215
-0.225472
-0.223746
-0.222036
-0.220345
-0.21867
-0.217015
-0.21538
-0.213766
-0.212171
0.309426
0.293218
0.276743
0.259514
0.240974
0.220562
0.197953
0.17282
0.14517
0.115117
0.0829527
0.0494645
0.0153104
-0.0187217
-0.0519937
-0.0835062
-0.112975
-0.139868
-0.164224
-0.185932
-0.204956
-0.221403
-0.235436
-0.247284
-0.257086
-0.265068
-0.271402
-0.276298
-0.279949
-0.282531
-0.284233
-0.285193
-0.285551
-0.285436
-0.284928
-0.284107
-0.283049
-0.281797
-0.280397
-0.278895
-0.277319
-0.27568
-0.273984
-0.272255
-0.270498
-0.268717
-0.266921
-0.26512
-0.263317
-0.261506
-0.259685
-0.257863
-0.256046
-0.25423
-0.252411
-0.250592
-0.248781
-0.246977
-0.245175
-0.243376
-0.241587
-0.239802
-0.238022
-0.236251
-0.234492
-0.232744
-0.231002
-0.22927
-0.227545
-0.225836
-0.224138
-0.22245
-0.220777
-0.219118
-0.217475
-0.215848
-0.214237
-0.212644
-0.211068
-0.209508
0.301426
0.286492
0.271418
0.25576
0.239009
0.220648
0.200373
0.177865
0.153079
0.126072
0.0970545
0.0664944
0.0348666
0.00304655
-0.0283874
-0.0587203
-0.0875815
-0.114429
-0.139053
-0.161296
-0.181108
-0.198539
-0.213663
-0.226672
-0.237671
-0.246856
-0.254384
-0.260444
-0.265207
-0.268829
-0.271494
-0.273336
-0.274495
-0.275106
-0.275252
-0.275018
-0.274486
-0.273705
-0.272727
-0.271602
-0.270366
-0.269032
-0.267613
-0.266135
-0.264608
-0.263037
-0.261434
-0.259812
-0.258176
-0.25652
-0.254844
-0.253158
-0.251469
-0.249775
-0.248069
-0.246359
-0.244651
-0.242946
-0.241237
-0.239527
-0.237823
-0.236121
-0.234419
-0.232723
-0.231036
-0.229357
-0.227681
-0.226013
-0.224351
-0.222702
-0.221062
-0.219429
-0.217809
-0.216202
-0.214609
-0.213028
-0.211463
-0.209912
-0.208376
-0.206852
0.293857
0.280025
0.266151
0.251829
0.23659
0.219963
0.201658
0.181373
0.159033
0.134649
0.108352
0.0804701
0.0514022
0.0218342
-0.00779879
-0.0368169
-0.0647928
-0.0911719
-0.115698
-0.138184
-0.158512
-0.176658
-0.192639
-0.206608
-0.218631
-0.228871
-0.237463
-0.244572
-0.250359
-0.254963
-0.258552
-0.261252
-0.2632
-0.264532
-0.265335
-0.265695
-0.265701
-0.265403
-0.26486
-0.264128
-0.263246
-0.262233
-0.261105
-0.259891
-0.258605
-0.257256
-0.255857
-0.254424
-0.252962
-0.251469
-0.249945
-0.248402
-0.246847
-0.245278
-0.243692
-0.242095
-0.240494
-0.23889
-0.237278
-0.235661
-0.234045
-0.232427
-0.230805
-0.229186
-0.227574
-0.225966
-0.224359
-0.222757
-0.221157
-0.219569
-0.217988
-0.216411
-0.214846
-0.213291
-0.211748
-0.210215
-0.208695
-0.207188
-0.205691
-0.204205
0.286693
0.273821
0.260983
0.247807
0.233859
0.218706
0.202077
0.183687
0.163444
0.141321
0.117408
0.0919455
0.0652212
0.0377703
0.00997212
-0.017557
-0.0444142
-0.070077
-0.094259
-0.116725
-0.137298
-0.155912
-0.172527
-0.187258
-0.200127
-0.211271
-0.220796
-0.228843
-0.235557
-0.241063
-0.24552
-0.249039
-0.251751
-0.25379
-0.255241
-0.256194
-0.25674
-0.256932
-0.256833
-0.256504
-0.255987
-0.255305
-0.254478
-0.253539
-0.252506
-0.251387
-0.250201
-0.248965
-0.247685
-0.246362
-0.244997
-0.243601
-0.242185
-0.240748
-0.239285
-0.237805
-0.236314
-0.234816
-0.233304
-0.231781
-0.230256
-0.228724
-0.227186
-0.225646
-0.224109
-0.222574
-0.221037
-0.219502
-0.217967
-0.216441
-0.214919
-0.2134
-0.21189
-0.210388
-0.208895
-0.207411
-0.205936
-0.204473
-0.203017
-0.20157
0.279907
0.267878
0.255943
0.243756
0.230918
0.217028
0.201836
0.185071
0.166632
0.146471
0.124645
0.10133
0.0767291
0.0512782
0.0252927
-0.000698068
-0.0263295
-0.0511121
-0.0747413
-0.0969555
-0.117544
-0.136403
-0.153446
-0.168747
-0.182292
-0.194187
-0.204512
-0.213383
-0.220927
-0.227252
-0.232507
-0.236793
-0.240231
-0.242951
-0.245035
-0.246572
-0.247653
-0.248335
-0.248683
-0.248761
-0.248616
-0.248273
-0.247756
-0.2471
-0.246326
-0.245446
-0.24448
-0.243447
-0.242356
-0.241208
-0.240007
-0.238765
-0.237492
-0.23619
-0.234855
-0.233494
-0.232118
-0.230727
-0.229318
-0.227893
-0.226461
-0.225017
-0.223563
-0.222105
-0.220645
-0.219184
-0.217718
-0.216252
-0.214782
-0.213319
-0.211858
-0.210397
-0.208942
-0.207494
-0.206052
-0.204617
-0.203189
-0.201769
-0.200356
-0.198948
0.273476
0.262191
0.251046
0.23972
0.227843
0.215044
0.20109
0.185726
0.168848
0.150395
0.130396
0.108983
0.0863012
0.0627056
0.0384475
0.0139788
-0.0103748
-0.0341636
-0.0570848
-0.0788682
-0.0992809
-0.118191
-0.135475
-0.151168
-0.165226
-0.177725
-0.188718
-0.198298
-0.206572
-0.213633
-0.219614
-0.224605
-0.228722
-0.232088
-0.234779
-0.236882
-0.238489
-0.239655
-0.240448
-0.240934
-0.241162
-0.241163
-0.24096
-0.240592
-0.240084
-0.239448
-0.238708
-0.237883
-0.236986
-0.236018
-0.234985
-0.2339
-0.232775
-0.231611
-0.230407
-0.22917
-0.22791
-0.22663
-0.225325
-0.224
-0.222662
-0.221309
-0.219942
-0.218566
-0.217185
-0.2158
-0.214406
-0.213008
-0.211606
-0.210206
-0.208806
-0.207404
-0.206006
-0.204611
-0.203222
-0.201836
-0.200455
-0.19908
-0.197708
-0.19634
0.267373
0.25675
0.246303
0.235731
0.224691
0.212839
0.199958
0.18581
0.170289
0.153327
0.134932
0.115203
0.0942468
0.0723494
0.0497101
0.0267144
0.00364696
-0.0190868
-0.0411971
-0.0624161
-0.0824995
-0.101298
-0.118657
-0.134583
-0.149003
-0.161967
-0.173502
-0.183677
-0.192581
-0.20029
-0.206923
-0.212558
-0.217302
-0.221269
-0.224536
-0.227181
-0.229296
-0.230934
-0.232165
-0.233055
-0.233656
-0.233999
-0.234112
-0.234036
-0.233796
-0.233408
-0.232897
-0.232285
-0.231585
-0.230801
-0.22994
-0.229016
-0.228042
-0.227019
-0.225948
-0.224837
-0.223696
-0.222529
-0.22133
-0.220107
-0.218866
-0.217605
-0.216325
-0.215032
-0.213732
-0.212423
-0.211102
-0.209775
-0.208439
-0.207105
-0.205766
-0.204423
-0.203082
-0.201742
-0.200405
-0.199069
-0.197735
-0.196405
-0.195077
-0.19375
0.261578
0.251546
0.241717
0.23181
0.221504
0.21048
0.198535
0.185446
0.17111
0.155455
0.138473
0.120238
0.100826
0.0804737
0.0593361
0.0377411
0.0159339
-0.00572388
-0.0269616
-0.0475216
-0.0671577
-0.0857101
-0.103005
-0.119024
-0.133671
-0.14697
-0.158927
-0.169588
-0.179024
-0.187295
-0.194505
-0.20072
-0.206035
-0.21056
-0.214363
-0.217521
-0.22012
-0.222215
-0.223872
-0.225158
-0.226125
-0.226809
-0.227236
-0.227451
-0.227481
-0.227342
-0.227063
-0.226666
-0.226166
-0.225569
-0.224882
-0.224121
-0.223299
-0.222421
-0.221485
-0.220502
-0.219481
-0.218428
-0.217338
-0.216217
-0.215074
-0.213907
-0.212715
-0.211508
-0.210288
-0.209057
-0.20781
-0.206554
-0.205286
-0.204016
-0.20274
-0.201457
-0.200174
-0.198889
-0.197604
-0.196318
-0.195032
-0.193748
-0.192463
-0.191178
0.256068
0.246568
0.237289
0.227971
0.218312
0.208016
0.196892
0.184733
0.171436
0.156929
0.141196
0.124288
0.106259
0.0873068
0.0675518
0.0472721
0.0266775
0.00608786
-0.0142481
-0.034088
-0.0531907
-0.0713932
-0.0885095
-0.104501
-0.119254
-0.132772
-0.14504
-0.156085
-0.165959
-0.174707
-0.182419
-0.189148
-0.194979
-0.200013
-0.204312
-0.207949
-0.211007
-0.213536
-0.215602
-0.217273
-0.218599
-0.219617
-0.220355
-0.220859
-0.221156
-0.221268
-0.22122
-0.221039
-0.22074
-0.220331
-0.219819
-0.219223
-0.218556
-0.217823
-0.217024
-0.21617
-0.215272
-0.214334
-0.213354
-0.212337
-0.211293
-0.210219
-0.209118
-0.207995
-0.206858
-0.205704
-0.204532
-0.203347
-0.202148
-0.200944
-0.199731
-0.198508
-0.197282
-0.196052
-0.19482
-0.193584
-0.192347
-0.191109
-0.189868
-0.188625
0.250825
0.241803
0.233019
0.224225
0.21514
0.205486
0.195086
0.183745
0.171364
0.157872
0.143244
0.127518
0.110729
0.093043
0.0745548
0.0554999
0.0360571
0.0165079
-0.00292186
-0.0220077
-0.0405183
-0.0582925
-0.0751381
-0.0910021
-0.105759
-0.119392
-0.131871
-0.143204
-0.153429
-0.162573
-0.170714
-0.177892
-0.184182
-0.189675
-0.19443
-0.19851
-0.201996
-0.204935
-0.207392
-0.209431
-0.211104
-0.212447
-0.21349
-0.214278
-0.214841
-0.215199
-0.215383
-0.215417
-0.215319
-0.215098
-0.214762
-0.214331
-0.21382
-0.213233
-0.212571
-0.211848
-0.211072
-0.210251
-0.209381
-0.208469
-0.207524
-0.206545
-0.205534
-0.204498
-0.203443
-0.202367
-0.201271
-0.200158
-0.199027
-0.197889
-0.196739
-0.195577
-0.194409
-0.193234
-0.192055
-0.19087
-0.189682
-0.18849
-0.187293
-0.186093
0.24583
0.237242
0.228902
0.220578
0.212003
0.20292
0.193161
0.182544
0.170975
0.158382
0.144737
0.130065
0.114388
0.0978471
0.0805161
0.0625954
0.0442366
0.0256869
0.00714988
-0.0111692
-0.0290514
-0.0463412
-0.0628454
-0.078501
-0.0931738
-0.106833
-0.119434
-0.13097
-0.141463
-0.150927
-0.159426
-0.16699
-0.173683
-0.179587
-0.184753
-0.18924
-0.193123
-0.196446
-0.199271
-0.201661
-0.203666
-0.205323
-0.206662
-0.207728
-0.208551
-0.209153
-0.209564
-0.209811
-0.209913
-0.209879
-0.20972
-0.209454
-0.209098
-0.208657
-0.208134
-0.20754
-0.206889
-0.206184
-0.205425
-0.204618
-0.203773
-0.202889
-0.201969
-0.201019
-0.200046
-0.19905
-0.198028
-0.196988
-0.195926
-0.194854
-0.193767
-0.192665
-0.191555
-0.190436
-0.189311
-0.188177
-0.187037
-0.185892
-0.184739
-0.183582
0.241066
0.232874
0.224935
0.217032
0.208915
0.200341
0.191152
0.181179
0.17033
0.158538
0.145769
0.132041
0.117364
0.101858
0.085583
0.0687085
0.0513633
0.0337643
0.016094
-0.00146128
-0.0186969
-0.0354652
-0.0515756
-0.0669589
-0.0814763
-0.0950852
-0.107731
-0.119392
-0.130079
-0.139793
-0.148585
-0.156474
-0.163515
-0.16978
-0.175315
-0.180171
-0.184418
-0.188098
-0.191267
-0.193988
-0.19631
-0.198268
-0.199891
-0.201226
-0.202302
-0.203143
-0.203778
-0.204235
-0.204535
-0.204686
-0.204701
-0.204599
-0.204398
-0.204103
-0.203717
-0.203254
-0.202725
-0.202138
-0.201489
-0.200787
-0.200043
-0.199254
-0.198424
-0.197561
-0.196671
-0.195753
-0.194807
-0.193839
-0.192846
-0.19184
-0.190816
-0.189775
-0.188724
-0.18766
-0.186588
-0.185506
-0.184415
-0.183317
-0.182208
-0.181094
0.236519
0.228687
0.221113
0.213591
0.205885
0.197766
0.189087
0.179689
0.169484
0.158405
0.146421
0.133539
0.119762
0.105195
0.0898815
0.0739699
0.0575683
0.040867
0.0240292
0.00722297
-0.00936173
-0.0255865
-0.0412664
-0.0563289
-0.0706333
-0.0841289
-0.096753
-0.108472
-0.119285
-0.129184
-0.138207
-0.146365
-0.153702
-0.160281
-0.166142
-0.171329
-0.175908
-0.179916
-0.183406
-0.186437
-0.189057
-0.1913
-0.193196
-0.194789
-0.196111
-0.197183
-0.198037
-0.1987
-0.199193
-0.199527
-0.199714
-0.199775
-0.199727
-0.199576
-0.199328
-0.198994
-0.198588
-0.198116
-0.197578
-0.196981
-0.196336
-0.195643
-0.194904
-0.194127
-0.193319
-0.19248
-0.19161
-0.190713
-0.18979
-0.188849
-0.187889
-0.186909
-0.185915
-0.184907
-0.183888
-0.182857
-0.181816
-0.180767
-0.179712
-0.178627
0.232174
0.224672
0.217431
0.210254
0.202918
0.195209
0.186988
0.178105
0.168476
0.158038
0.146756
0.134636
0.121673
0.107955
0.0935195
0.0784927
0.0629669
0.0471089
0.0310644
0.0149845
-0.000955374
-0.016627
-0.0318525
-0.0465586
-0.0606053
-0.0739358
-0.0864815
-0.0981997
-0.10908
-0.119106
-0.128306
-0.136679
-0.144262
-0.15111
-0.157255
-0.162737
-0.167615
-0.171921
-0.175706
-0.179026
-0.181925
-0.184438
-0.186593
-0.188434
-0.18999
-0.191286
-0.192352
-0.193216
-0.193898
-0.194411
-0.194768
-0.194989
-0.195091
-0.195084
-0.194971
-0.194765
-0.194481
-0.194125
-0.193696
-0.193204
-0.192658
-0.192059
-0.19141
-0.19072
-0.189994
-0.189233
-0.188438
-0.187613
-0.186758
-0.185884
-0.184986
-0.184066
-0.183131
-0.182179
-0.181213
-0.180233
-0.179241
-0.178239
-0.177222
-0.176181
0.228019
0.22082
0.213882
0.207019
0.200019
0.19268
0.184872
0.176452
0.167341
0.157478
0.146831
0.135397
0.12317
0.110224
0.096589
0.082375
0.0676604
0.0525916
0.0372986
0.0219171
0.0066082
-0.00850988
-0.0232678
-0.037593
-0.0513481
-0.0644723
-0.0768932
-0.088561
-0.099458
-0.109559
-0.118883
-0.127424
-0.135207
-0.142281
-0.148671
-0.154412
-0.159556
-0.164132
-0.168187
-0.171772
-0.174932
-0.177698
-0.180097
-0.182173
-0.183955
-0.185465
-0.186735
-0.187793
-0.18866
-0.189347
-0.189869
-0.190247
-0.190498
-0.190631
-0.190652
-0.190573
-0.190409
-0.190167
-0.189847
-0.189458
-0.189011
-0.188506
-0.187946
-0.187341
-0.186697
-0.186015
-0.185294
-0.18454
-0.183754
-0.182945
-0.18211
-0.18125
-0.180372
-0.179475
-0.178562
-0.177633
-0.176689
-0.175733
-0.174757
-0.173761
0.224041
0.217122
0.210462
0.203886
0.197191
0.190188
0.182752
0.17475
0.166106
0.156764
0.146688
0.135876
0.124316
0.112073
0.0991688
0.0857013
0.0717373
0.0574051
0.0428211
0.0281066
0.0134096
-0.00116184
-0.0154472
-0.0293762
-0.042815
-0.055701
-0.0679593
-0.0795349
-0.0904041
-0.100535
-0.109939
-0.118602
-0.126543
-0.133803
-0.140401
-0.146366
-0.151745
-0.156562
-0.160861
-0.164691
-0.168091
-0.171093
-0.173722
-0.176019
-0.178015
-0.17973
-0.181196
-0.182441
-0.183486
-0.184343
-0.185026
-0.185556
-0.185953
-0.186224
-0.186376
-0.186422
-0.186376
-0.186247
-0.186034
-0.185747
-0.185397
-0.184985
-0.184515
-0.183994
-0.183431
-0.182826
-0.182179
-0.181496
-0.180778
-0.180034
-0.179261
-0.178461
-0.17764
-0.176798
-0.175938
-0.175059
-0.174163
-0.173252
-0.172322
-0.171369
0.22023
0.213569
0.207165
0.200851
0.194435
0.187737
0.180639
0.173016
0.164796
0.155924
0.146366
0.136117
0.125163
0.113561
0.101326
0.0885446
0.0752746
0.061629
0.0477116
0.0336312
0.0195232
0.00548642
-0.00832811
-0.0218527
-0.0349586
-0.0475823
-0.059648
-0.0710971
-0.0819009
-0.0920228
-0.101466
-0.110212
-0.118272
-0.125681
-0.132452
-0.138608
-0.144192
-0.149224
-0.153742
-0.157793
-0.161414
-0.164634
-0.167477
-0.169983
-0.17218
-0.174091
-0.175744
-0.177168
-0.178384
-0.179405
-0.180244
-0.180923
-0.181462
-0.181867
-0.182147
-0.182316
-0.182386
-0.182368
-0.182261
-0.182075
-0.181821
-0.1815
-0.181118
-0.180681
-0.180198
-0.179669
-0.179096
-0.178483
-0.177832
-0.177152
-0.176442
-0.175701
-0.174937
-0.174149
-0.173341
-0.172512
-0.171664
-0.170799
-0.169914
-0.169004
0.216575
0.210153
0.203986
0.197913
0.191752
0.185331
0.178542
0.171263
0.163428
0.154983
0.145896
0.136159
0.125757
0.11474
0.103118
0.0909679
0.0783395
0.065333
0.0520411
0.0385612
0.0250174
0.0114995
-0.00185075
-0.0149689
-0.0277316
-0.0400757
-0.0519257
-0.0632203
-0.0739273
-0.0840063
-0.0934546
-0.102248
-0.110393
-0.117916
-0.124828
-0.131144
-0.136904
-0.142124
-0.146838
-0.151089
-0.154911
-0.158332
-0.161373
-0.164074
-0.166461
-0.168555
-0.170387
-0.171982
-0.173362
-0.17454
-0.17553
-0.176353
-0.177029
-0.177566
-0.177971
-0.178259
-0.178444
-0.178534
-0.17853
-0.178443
-0.178284
-0.178054
-0.177757
-0.177403
-0.176999
-0.176546
-0.176045
-0.175502
-0.174918
-0.174302
-0.173652
-0.17297
-0.172262
-0.171528
-0.170772
-0.169992
-0.169192
-0.168373
-0.167532
-0.166665
0.213067
0.206867
0.200919
0.195068
0.189141
0.182975
0.176467
0.169502
0.162017
0.153961
0.145302
0.136033
0.126135
0.115653
0.104594
0.0930254
0.0809906
0.0685786
0.0558728
0.0429602
0.0299543
0.016937
0.0040408
-0.00867332
-0.0210879
-0.0331408
-0.0447575
-0.0558756
-0.0664601
-0.0764676
-0.0858904
-0.0947003
-0.102898
-0.110505
-0.117528
-0.123977
-0.129886
-0.135269
-0.140156
-0.144585
-0.148589
-0.152193
-0.155417
-0.158299
-0.160863
-0.163131
-0.165131
-0.166889
-0.168425
-0.169754
-0.170889
-0.171851
-0.17266
-0.173324
-0.173851
-0.174255
-0.174551
-0.174747
-0.174846
-0.174855
-0.174789
-0.174647
-0.174436
-0.174164
-0.173837
-0.173459
-0.173029
-0.172555
-0.172036
-0.171483
-0.170893
-0.170269
-0.169617
-0.168937
-0.168232
-0.167501
-0.166748
-0.165975
-0.165177
-0.164353
0.209697
0.203705
0.197959
0.192313
0.186601
0.18067
0.174419
0.167742
0.160576
0.152876
0.144609
0.135766
0.126329
0.116338
0.105797
0.0947641
0.0832786
0.0714198
0.0592624
0.0468846
0.0343903
0.0218536
0.00939864
-0.00291743
-0.0149831
-0.0267379
-0.038109
-0.0490335
-0.0594745
-0.0693867
-0.0787581
-0.0875574
-0.0957805
-0.103444
-0.11055
-0.117105
-0.123139
-0.128662
-0.133699
-0.138286
-0.142454
-0.146224
-0.149616
-0.152665
-0.155394
-0.157824
-0.159982
-0.161894
-0.163579
-0.165052
-0.166326
-0.167422
-0.168359
-0.169146
-0.169791
-0.170308
-0.170712
-0.171012
-0.171209
-0.171314
-0.171338
-0.171284
-0.171156
-0.170963
-0.170713
-0.170408
-0.170049
-0.169642
-0.169188
-0.168697
-0.168167
-0.1676
-0.167003
-0.166376
-0.165721
-0.165039
-0.164333
-0.163604
-0.16285
-0.162068
0.206459
0.200659
0.195102
0.189646
0.184133
0.178416
0.172402
0.165988
0.159116
0.151741
0.143833
0.135381
0.126368
0.116827
0.106762
0.0962245
0.0852479
0.0739038
0.0622595
0.0503852
0.038376
0.0262993
0.0142708
0.00234422
-0.00937517
-0.0208287
-0.0319459
-0.0426639
-0.052945
-0.0627423
-0.0720405
-0.0808056
-0.0890298
-0.0967253
-0.10389
-0.110528
-0.116663
-0.122302
-0.12747
-0.132196
-0.136509
-0.140429
-0.143974
-0.147176
-0.150058
-0.152639
-0.154946
-0.157003
-0.158829
-0.160439
-0.161845
-0.163069
-0.164129
-0.165034
-0.165793
-0.16642
-0.166929
-0.167329
-0.167623
-0.16782
-0.167933
-0.167964
-0.167918
-0.167804
-0.167629
-0.167396
-0.167105
-0.166765
-0.166374
-0.165945
-0.165474
-0.164963
-0.16442
-0.163845
-0.163241
-0.162607
-0.161947
-0.161263
-0.160552
-0.159811
0.203343
0.197724
0.192342
0.187062
0.181733
0.176216
0.170419
0.164248
0.157645
0.150569
0.14299
0.134897
0.126273
0.117147
0.107521
0.0974417
0.0869371
0.076072
0.0649078
0.053507
0.0419573
0.0303193
0.0187016
0.00715389
-0.00422429
-0.0153766
-0.026235
-0.0367375
-0.0468458
-0.0565122
-0.0657189
-0.0744299
-0.082634
-0.0903394
-0.097541
-0.104239
-0.110455
-0.116191
-0.121469
-0.126316
-0.130757
-0.134812
-0.138494
-0.141836
-0.144859
-0.147581
-0.150026
-0.152218
-0.154178
-0.155917
-0.15745
-0.158796
-0.159973
-0.160993
-0.161861
-0.162594
-0.163204
-0.163702
-0.16409
-0.164377
-0.164577
-0.164691
-0.164724
-0.164686
-0.164585
-0.164423
-0.1642
-0.163925
-0.163597
-0.163228
-0.162815
-0.16236
-0.16187
-0.161346
-0.160791
-0.160205
-0.159591
-0.15895
-0.158281
-0.157582
0.200344
0.194894
0.189676
0.18456
0.179402
0.174068
0.168473
0.162525
0.156171
0.149369
0.142093
0.134331
0.126065
0.117322
0.108102
0.0984461
0.0883798
0.0779611
0.0672458
0.0562903
0.0451749
0.0339549
0.0227313
0.0115507
0.000506619
-0.0103469
-0.0209445
-0.0312254
-0.0411513
-0.0506743
-0.0597744
-0.0684143
-0.0765799
-0.084276
-0.0914949
-0.0982337
-0.10451
-0.110324
-0.115694
-0.120645
-0.125199
-0.129372
-0.133179
-0.136648
-0.1398
-0.142651
-0.145225
-0.147545
-0.149629
-0.151491
-0.153143
-0.154605
-0.155895
-0.157024
-0.157998
-0.158832
-0.15954
-0.160133
-0.160611
-0.160986
-0.16127
-0.161465
-0.161576
-0.161613
-0.161584
-0.16149
-0.161334
-0.161123
-0.160857
-0.160546
-0.16019
-0.15979
-0.159353
-0.158879
-0.158373
-0.157833