/*--------------------------------*- C++ -*----------------------------------*\
| =========                 |                                                 |
| \\      /  F ield         | OpenFOAM: The Open Source CFD Toolbox           |
|  \\    /   O peration     | Version:  2406                                  |
|   \\  /    A nd           | Website:  www.openfoam.com                      |
|    \\/     M anipulation  |                                                 |
\*---------------------------------------------------------------------------*/
FoamFile
{
    version     2.0;
    format      ascii;
    arch        "LSB;label=32;scalar=64";
    class       volScalarField;
    location    "15";
    object      p;
}
// * * * * * * * * * * * * * * * * * * * * * * * * * * * * * * * * * * * * * //

dimensions      [0 2 -2 0 0 0 0];

internalField   nonuniform List<scalar> 
40000
(
-1.72168e-07
-1.45301e-06
-3.63988e-06
-6.86743e-06
-1.12786e-05
-1.70118e-05
-2.42261e-05
-3.31071e-05
-4.3865e-05
-5.67333e-05
-7.19684e-05
-8.98498e-05
-0.000110679
-0.000134779
-0.000162494
-0.000194189
-0.000230249
-0.000271081
-0.000317111
-0.000368786
-0.000426578
-0.000490978
-0.000562505
-0.000641703
-0.000729147
-0.000825444
-0.000931236
-0.00104721
-0.00117409
-0.00131265
-0.00146374
-0.00162825
-0.00180715
-0.00200147
-0.00221234
-0.00244099
-0.00268871
-0.00295693
-0.00324716
-0.00356106
-0.00390036
-0.00426696
-0.00466285
-0.00509016
-0.00555114
-0.00604813
-0.0065836
-0.00716009
-0.00778022
-0.00844665
-0.00916208
-0.00992917
-0.0107506
-0.0116287
-0.0125661
-0.0135649
-0.014627
-0.015754
-0.0169472
-0.0182073
-0.0195347
-0.020929
-0.0223894
-0.0239144
-0.0255018
-0.0271488
-0.0288519
-0.0306069
-0.0324092
-0.0342535
-0.0361343
-0.0380456
-0.0399813
-0.0419355
-0.0439018
-0.0458747
-0.0478483
-0.0498177
-0.0517781
-0.0537254
-0.0556557
-0.057566
-0.0594535
-0.0613156
-0.0631502
-0.0649552
-0.0667283
-0.0684672
-0.0701692
-0.0718311
-0.073449
-0.0750186
-0.0765346
-0.0779908
-0.0793805
-0.0806959
-0.0819286
-0.0830696
-0.0841092
-0.0850375
-0.000711619
-0.000709599
-0.000708777
-0.000709347
-0.000711244
-0.000714568
-0.000719499
-0.000726235
-0.000734989
-0.000746002
-0.000759534
-0.000775872
-0.000795322
-0.000818213
-0.000844896
-0.000875741
-0.00091114
-0.000951505
-0.000997269
-0.00104889
-0.00110683
-0.0011716
-0.00124373
-0.00132375
-0.00141226
-0.00150985
-0.00161719
-0.00173494
-0.00186385
-0.0020047
-0.00215832
-0.00232561
-0.00250754
-0.00270515
-0.00291955
-0.00315197
-0.00340371
-0.00367618
-0.0039709
-0.00428951
-0.00463374
-0.00500548
-0.00540671
-0.00583955
-0.00630622
-0.00680906
-0.00735053
-0.00793312
-0.00855945
-0.00923215
-0.00995387
-0.0107272
-0.0115549
-0.0124392
-0.0133826
-0.0143872
-0.0154548
-0.0165871
-0.0177851
-0.0190497
-0.020381
-0.0217787
-0.023242
-0.0247692
-0.0263581
-0.028006
-0.0297092
-0.0314638
-0.0332649
-0.0351076
-0.0369863
-0.0388951
-0.0408282
-0.0427795
-0.0447431
-0.0467133
-0.0486848
-0.0506525
-0.0526119
-0.0545589
-0.05649
-0.0584022
-0.0602927
-0.062159
-0.0639991
-0.0658108
-0.0675919
-0.06934
-0.0710523
-0.0727255
-0.0743556
-0.075938
-0.0774674
-0.0789373
-0.0803409
-0.0816701
-0.0829163
-0.0840703
-0.0851223
-0.0860621
-0.00138619
-0.00138103
-0.0013773
-0.00137528
-0.00137472
-0.00137568
-0.00137835
-0.00138294
-0.00138967
-0.00139879
-0.00141056
-0.00142527
-0.00144323
-0.00146478
-0.00149027
-0.00152008
-0.00155461
-0.00159427
-0.0016395
-0.00169076
-0.00174853
-0.00181331
-0.00188564
-0.00196607
-0.00205517
-0.00215357
-0.00226191
-0.00238088
-0.00251121
-0.00265369
-0.00280914
-0.00297846
-0.00316262
-0.00336265
-0.00357968
-0.0038149
-0.00406961
-0.00434522
-0.00464323
-0.00496528
-0.00531308
-0.00568851
-0.00609353
-0.00653024
-0.00700085
-0.00750768
-0.00805315
-0.00863975
-0.00927006
-0.00994667
-0.0106722
-0.0114493
-0.0122804
-0.0131681
-0.0141146
-0.015122
-0.0161921
-0.0173265
-0.0185262
-0.019792
-0.0211241
-0.0225221
-0.0239851
-0.0255114
-0.027099
-0.028745
-0.0304459
-0.0321976
-0.0339955
-0.0358346
-0.0377095
-0.0396145
-0.0415436
-0.0434911
-0.0454512
-0.0474183
-0.0493872
-0.051353
-0.0533112
-0.0552581
-0.05719
-0.059104
-0.0609974
-0.0628678
-0.0647132
-0.0665313
-0.0683199
-0.0700765
-0.0717983
-0.0734817
-0.0751229
-0.076717
-0.0782583
-0.0797406
-0.0811566
-0.0824981
-0.0837563
-0.0849219
-0.0859848
-0.0869347
-0.0020222
-0.00201403
-0.00200752
-0.00200301
-0.00200006
-0.0019987
-0.00199915
-0.00200162
-0.00200632
-0.00201352
-0.00202348
-0.00203649
-0.00205286
-0.00207295
-0.0020971
-0.0021257
-0.00215915
-0.00219787
-0.00224231
-0.00229292
-0.0023502
-0.00241464
-0.00248679
-0.0025672
-0.00265645
-0.00275516
-0.00286398
-0.00298359
-0.00311473
-0.00325818
-0.00341477
-0.00358538
-0.00377098
-0.0039726
-0.00419133
-0.00442839
-0.00468505
-0.00496271
-0.00526286
-0.0055871
-0.00593716
-0.00631487
-0.00672218
-0.00716118
-0.00763404
-0.00814307
-0.00869065
-0.00927925
-0.00991142
-0.0105897
-0.0113168
-0.0120951
-0.0129272
-0.0138156
-0.0147625
-0.0157699
-0.0168396
-0.0179732
-0.0191717
-0.0204358
-0.0217657
-0.023161
-0.0246209
-0.0261437
-0.0277273
-0.0293689
-0.031065
-0.0328117
-0.0346045
-0.0364383
-0.0383079
-0.0402076
-0.0421318
-0.0440746
-0.0460306
-0.047994
-0.04996
-0.0519236
-0.0538806
-0.0558272
-0.0577598
-0.0596755
-0.0615717
-0.0634461
-0.0652963
-0.0671204
-0.0689159
-0.0706803
-0.0724106
-0.0741033
-0.0757544
-0.0773588
-0.0789108
-0.0804039
-0.0818308
-0.0831831
-0.0844519
-0.0856276
-0.0867
-0.0876587
-0.00261844
-0.00260743
-0.00259827
-0.00259138
-0.00258614
-0.00258255
-0.00258082
-0.0025812
-0.00258389
-0.00258916
-0.00259728
-0.00260853
-0.00262324
-0.00264176
-0.00266444
-0.00269167
-0.00272386
-0.00276142
-0.00280481
-0.0028545
-0.00291097
-0.00297473
-0.00304632
-0.0031263
-0.00321525
-0.00331379
-0.00342256
-0.00354227
-0.00367362
-0.0038174
-0.00397444
-0.00414561
-0.00433188
-0.00453424
-0.00475382
-0.00499177
-0.00524939
-0.00552804
-0.00582919
-0.00615443
-0.00650547
-0.0068841
-0.00729228
-0.00773204
-0.00820554
-0.00871505
-0.00926294
-0.00985164
-0.0104837
-0.0111616
-0.0118879
-0.0126652
-0.0134959
-0.0143825
-0.0153272
-0.016332
-0.0173987
-0.0185287
-0.0197233
-0.0209829
-0.022308
-0.023698
-0.0251521
-0.0266688
-0.028246
-0.0298809
-0.0315702
-0.0333099
-0.0350957
-0.0369226
-0.0387855
-0.0406789
-0.0425971
-0.0445345
-0.0464856
-0.048445
-0.0504077
-0.0523689
-0.0543245
-0.0562705
-0.0582037
-0.060121
-0.0620198
-0.0638977
-0.0657525
-0.067582
-0.0693837
-0.0711551
-0.072893
-0.074594
-0.0762537
-0.0778672
-0.0794285
-0.0809311
-0.0823673
-0.083729
-0.0850068
-0.0861913
-0.087272
-0.0882382
-0.0031743
-0.00316063
-0.00314897
-0.00313982
-0.0031324
-0.00312666
-0.00312283
-0.00312117
-0.00312189
-0.00312523
-0.00313149
-0.00314095
-0.00315393
-0.00317079
-0.00319188
-0.0032176
-0.00324834
-0.00328455
-0.00332667
-0.00337516
-0.00343053
-0.00349328
-0.00356395
-0.00364309
-0.00373131
-0.00382921
-0.00393744
-0.00405668
-0.00418766
-0.00433115
-0.00448797
-0.004659
-0.00484516
-0.00504748
-0.00526702
-0.00550497
-0.00576257
-0.00604118
-0.00634225
-0.00666735
-0.00701813
-0.00739641
-0.00780407
-0.00824314
-0.00871574
-0.00922412
-0.0097706
-0.0103576
-0.0109876
-0.0116631
-0.0123866
-0.0131607
-0.0139879
-0.0148704
-0.0158105
-0.0168102
-0.0178714
-0.0189954
-0.0201834
-0.0214361
-0.0227537
-0.024136
-0.0255819
-0.0270902
-0.0286587
-0.0302848
-0.0319652
-0.0336962
-0.0354733
-0.0372919
-0.0391468
-0.0410326
-0.0429439
-0.0448751
-0.0468208
-0.0487756
-0.0507347
-0.0526933
-0.0546471
-0.0565925
-0.0585261
-0.0604447
-0.0623458
-0.064227
-0.0660858
-0.0679201
-0.0697274
-0.071505
-0.0732497
-0.0749578
-0.0766251
-0.0782463
-0.0798156
-0.0813262
-0.0827706
-0.0841401
-0.0854257
-0.0866175
-0.0877052
-0.0886779
-0.00368964
-0.0036735
-0.00365952
-0.00364825
-0.00363876
-0.00363097
-0.00362514
-0.00362149
-0.00362027
-0.00362172
-0.00362612
-0.00363376
-0.00364497
-0.00366009
-0.00367949
-0.00370357
-0.00373272
-0.00376738
-0.003808
-0.00385506
-0.00390904
-0.00397047
-0.00403987
-0.00411781
-0.00420487
-0.00430167
-0.00440886
-0.00452712
-0.00465716
-0.00479975
-0.00495571
-0.00512589
-0.00531122
-0.0055127
-0.0057314
-0.00596846
-0.00622511
-0.0065027
-0.00680264
-0.00712647
-0.00747585
-0.00785251
-0.00825835
-0.00869535
-0.0091656
-0.00967131
-0.0102148
-0.0107984
-0.0114246
-0.0120958
-0.0128146
-0.0135835
-0.0144049
-0.0152812
-0.0162145
-0.0172069
-0.0182602
-0.0193758
-0.020555
-0.0217984
-0.0231062
-0.0244783
-0.0259139
-0.0274115
-0.0289693
-0.0305846
-0.0322543
-0.0339748
-0.0357417
-0.0375505
-0.0393961
-0.0412734
-0.0431769
-0.0451011
-0.0470407
-0.0489905
-0.0509454
-0.052901
-0.054853
-0.0567975
-0.0587311
-0.0606509
-0.062554
-0.064438
-0.0663004
-0.068139
-0.0699512
-0.0717342
-0.0734847
-0.075199
-0.0768727
-0.0785006
-0.0800767
-0.0815941
-0.0830451
-0.0844213
-0.0857133
-0.0869113
-0.0880048
-0.0889828
-0.00416478
-0.00414637
-0.00413024
-0.004117
-0.00410557
-0.00409585
-0.00408809
-0.00408255
-0.00407945
-0.00407904
-0.00408159
-0.0040874
-0.0040968
-0.00411014
-0.00412777
-0.00415009
-0.00417751
-0.00421046
-0.00424939
-0.00429478
-0.00434712
-0.00440692
-0.00447473
-0.00455109
-0.00463661
-0.00473188
-0.00483757
-0.00495433
-0.00508289
-0.00522399
-0.00537846
-0.00554713
-0.00573092
-0.00593081
-0.00614786
-0.00638318
-0.00663799
-0.0069136
-0.00721141
-0.00753293
-0.00787977
-0.00825366
-0.00865643
-0.00909005
-0.00955657
-0.0100582
-0.0105971
-0.0111757
-0.0117964
-0.0124616
-0.0131739
-0.0139357
-0.0147494
-0.0156174
-0.0165418
-0.0175248
-0.0185681
-0.0196731
-0.0208412
-0.022073
-0.0233689
-0.0247288
-0.0261518
-0.0276368
-0.0291818
-0.0307845
-0.0324417
-0.03415
-0.0359052
-0.0377029
-0.0395381
-0.0414057
-0.0433004
-0.0452169
-0.0471498
-0.049094
-0.0510444
-0.0529967
-0.0549464
-0.0568897
-0.0588232
-0.0607438
-0.0626486
-0.064535
-0.0664007
-0.068243
-0.0700595
-0.0718471
-0.0736027
-0.0753223
-0.0770014
-0.0786348
-0.0802165
-0.0817395
-0.0831961
-0.0845777
-0.085875
-0.087078
-0.0881762
-0.0891586
-0.00460041
-0.00457993
-0.00456184
-0.00454678
-0.00453355
-0.00452202
-0.00451245
-0.0045051
-0.00450018
-0.00449796
-0.00449869
-0.00450269
-0.00451026
-0.00452176
-0.00453756
-0.00455803
-0.0045836
-0.00461469
-0.00465175
-0.00469527
-0.00474572
-0.00480363
-0.00486953
-0.00494399
-0.00502758
-0.00512092
-0.00522464
-0.00533943
-0.00546598
-0.00560504
-0.00575741
-0.00592393
-0.0061055
-0.00630308
-0.00651771
-0.00675048
-0.00700259
-0.00727532
-0.00757004
-0.00788823
-0.00823147
-0.00860146
-0.00899999
-0.00942899
-0.00989047
-0.0103866
-0.0109195
-0.0114916
-0.0121053
-0.0127629
-0.0134669
-0.0142198
-0.015024
-0.0158818
-0.0167955
-0.017767
-0.0187982
-0.0198907
-0.0210456
-0.0222638
-0.0235457
-0.0248912
-0.0262997
-0.0277701
-0.0293005
-0.0308888
-0.0325319
-0.0342264
-0.0359685
-0.0377537
-0.0395773
-0.0414342
-0.0433192
-0.0452271
-0.0471527
-0.0490906
-0.0510362
-0.0529847
-0.0549318
-0.0568737
-0.0588067
-0.0607278
-0.062634
-0.0645225
-0.0663909
-0.0682365
-0.0700567
-0.0718484
-0.0736082
-0.0753323
-0.0770159
-0.078654
-0.0802403
-0.0817678
-0.0832289
-0.0846149
-0.0859164
-0.0871234
-0.0882253
-0.0892112
-0.00499755
-0.00497521
-0.00495534
-0.00493862
-0.00492373
-0.00491051
-0.00489924
-0.00489018
-0.00488353
-0.00487955
-0.00487851
-0.00488071
-0.00488646
-0.0048961
-0.00491001
-0.00492857
-0.00495218
-0.00498128
-0.00501632
-0.00505777
-0.00510613
-0.00516189
-0.00522561
-0.00529784
-0.00537916
-0.00547017
-0.00557152
-0.00568387
-0.00580791
-0.0059444
-0.0060941
-0.00625786
-0.00643656
-0.00663113
-0.0068426
-0.00707205
-0.00732064
-0.00758962
-0.00788034
-0.00819424
-0.00853288
-0.0088979
-0.00929107
-0.00971427
-0.0101695
-0.0106588
-0.0111844
-0.0117486
-0.0123538
-0.0130022
-0.0136964
-0.0144388
-0.0152318
-0.0160776
-0.0169787
-0.0179369
-0.0189542
-0.0200321
-0.021172
-0.0223746
-0.0236406
-0.0249699
-0.026362
-0.0278158
-0.0293299
-0.030902
-0.0325293
-0.0342086
-0.0359361
-0.0377075
-0.0395183
-0.0413634
-0.0432379
-0.0451364
-0.0470539
-0.0489851
-0.0509251
-0.0528694
-0.0548136
-0.0567537
-0.058686
-0.0606073
-0.0625145
-0.0644048
-0.0662756
-0.0681241
-0.0699475
-0.0717426
-0.0735061
-0.0752339
-0.0769214
-0.0785632
-0.0801532
-0.0816844
-0.083149
-0.0845384
-0.0858432
-0.0870533
-0.0881582
-0.0891467
-0.00535748
-0.00533349
-0.00531202
-0.0052938
-0.00527739
-0.00526263
-0.00524978
-0.0052391
-0.00523081
-0.00522515
-0.00522239
-0.00522282
-0.00522676
-0.00523454
-0.00524653
-0.00526311
-0.0052847
-0.0053117
-0.00534458
-0.0053838
-0.00542986
-0.00548326
-0.00554454
-0.00561425
-0.00569296
-0.0057813
-0.00587987
-0.00598935
-0.00611042
-0.00624382
-0.00639032
-0.00655074
-0.00672594
-0.00691685
-0.00712446
-0.00734984
-0.00759413
-0.00785854
-0.00814439
-0.00845309
-0.00878615
-0.0091452
-0.00953196
-0.00994826
-0.0103961
-0.0108774
-0.0113944
-0.0119494
-0.0125446
-0.0131825
-0.0138653
-0.0145957
-0.0153758
-0.0162081
-0.0170949
-0.0180381
-0.0190396
-0.0201012
-0.0212242
-0.0224095
-0.0236576
-0.0249689
-0.0263428
-0.0277785
-0.0292745
-0.0308287
-0.0324387
-0.0341013
-0.0358128
-0.0375692
-0.0393659
-0.0411982
-0.0430611
-0.0449494
-0.046858
-0.0487818
-0.0507158
-0.0526554
-0.0545962
-0.0565342
-0.0584654
-0.0603866
-0.0622946
-0.0641865
-0.0660593
-0.0679103
-0.0697364
-0.0715346
-0.0733012
-0.0750322
-0.0767228
-0.0783677
-0.0799607
-0.0814948
-0.0829622
-0.0843542
-0.0856615
-0.086874
-0.087981
-0.0889716
-0.0056817
-0.00565626
-0.00563339
-0.00561382
-0.00559604
-0.00557986
-0.00556556
-0.00555338
-0.00554355
-0.00553629
-0.00553187
-0.00553058
-0.00553273
-0.00553865
-0.00554871
-0.00556329
-0.00558277
-0.0056076
-0.0056382
-0.00567506
-0.00571865
-0.00576948
-0.00582808
-0.00589501
-0.00597083
-0.00605614
-0.00615158
-0.00625779
-0.00637545
-0.00650529
-0.00664807
-0.00680459
-0.00697571
-0.00716233
-0.00736543
-0.00758603
-0.00782527
-0.00808432
-0.00836448
-0.00866711
-0.0089937
-0.00934582
-0.00972517
-0.0101335
-0.0105728
-0.011045
-0.0115523
-0.0120968
-0.0126808
-0.0133067
-0.0139769
-0.0146937
-0.0154595
-0.0162768
-0.0171476
-0.0180742
-0.0190584
-0.020102
-0.0212063
-0.0223725
-0.0236012
-0.0248927
-0.0262467
-0.0276625
-0.0291387
-0.0306736
-0.0322647
-0.0339091
-0.0356032
-0.0373432
-0.0391248
-0.0409431
-0.0427934
-0.0446706
-0.0465696
-0.0484853
-0.0504127
-0.0523472
-0.0542842
-0.0562196
-0.0581495
-0.0600703
-0.0619788
-0.0638719
-0.0657465
-0.0675997
-0.0694283
-0.0712292
-0.0729985
-0.0747322
-0.0764255
-0.0780729
-0.0796684
-0.0812047
-0.0826742
-0.0840683
-0.0853774
-0.0865916
-0.0877002
-0.0886922
-0.00597188
-0.00594518
-0.00592108
-0.00590033
-0.00588133
-0.00586388
-0.00584825
-0.00583468
-0.0058234
-0.00581463
-0.00580862
-0.00580567
-0.00580608
-0.00581017
-0.0058183
-0.00583084
-0.00584819
-0.00587076
-0.00589901
-0.00593337
-0.00597435
-0.00602244
-0.00607816
-0.00614207
-0.00621472
-0.00629672
-0.00638868
-0.00649124
-0.00660508
-0.00673092
-0.0068695
-0.00702161
-0.00718809
-0.00736983
-0.00756778
-0.00778295
-0.00801643
-0.00826938
-0.00854306
-0.00883881
-0.00915806
-0.00950235
-0.00987334
-0.0102728
-0.0107025
-0.0111645
-0.0116609
-0.0121938
-0.0127654
-0.0133781
-0.0140343
-0.0147363
-0.0154864
-0.0162871
-0.0171406
-0.018049
-0.0190143
-0.0200383
-0.0211225
-0.0222679
-0.0234755
-0.0247456
-0.0260781
-0.0274724
-0.0289274
-0.0304413
-0.032012
-0.0336368
-0.0353122
-0.0370345
-0.0387996
-0.0406029
-0.0424397
-0.0443048
-0.0461933
-0.0481001
-0.0500203
-0.0519491
-0.0538818
-0.0558143
-0.0577425
-0.0596627
-0.0615715
-0.0634655
-0.0653417
-0.0671969
-0.0690278
-0.0708311
-0.0726029
-0.074339
-0.0760346
-0.0776842
-0.0792816
-0.0808198
-0.082291
-0.0836865
-0.084997
-0.0862124
-0.0873222
-0.0883151
-0.00622979
-0.00620204
-0.00617689
-0.00615511
-0.00613504
-0.00611644
-0.00609961
-0.00608478
-0.00607216
-0.00606197
-0.00605446
-0.00604991
-0.00604862
-0.00605091
-0.00605713
-0.00606764
-0.00608282
-0.00610311
-0.00612891
-0.0061607
-0.00619894
-0.00624414
-0.0062968
-0.00635748
-0.00642672
-0.00650513
-0.0065933
-0.00669188
-0.00680153
-0.00692295
-0.00705688
-0.00720409
-0.00736541
-0.00754171
-0.00773392
-0.00794302
-0.00817008
-0.00841623
-0.0086827
-0.00897078
-0.00928188
-0.0096175
-0.00997925
-0.0103688
-0.0107881
-0.0112389
-0.0117233
-0.0122435
-0.0128016
-0.0134
-0.0140409
-0.0147268
-0.01546
-0.0162428
-0.0170775
-0.0179664
-0.0189114
-0.0199143
-0.0209768
-0.0221
-0.023285
-0.0245321
-0.0258415
-0.0272128
-0.0286449
-0.0301365
-0.0316854
-0.033289
-0.0349444
-0.0366478
-0.0383952
-0.0401823
-0.0420044
-0.0438565
-0.0457337
-0.0476309
-0.0495432
-0.0514657
-0.0533937
-0.0553228
-0.057249
-0.0591683
-0.0610771
-0.0629719
-0.0648495
-0.0667065
-0.0685396
-0.0703451
-0.0721192
-0.0738576
-0.0755553
-0.0772068
-0.078806
-0.0803457
-0.0818182
-0.0832149
-0.0845264
-0.0857427
-0.0868532
-0.0878467
-0.0064573
-0.00642868
-0.00640266
-0.00638
-0.006359
-0.0063394
-0.0063215
-0.00630552
-0.00629167
-0.00628016
-0.00627124
-0.00626517
-0.00626225
-0.00626278
-0.00626712
-0.0062756
-0.00628862
-0.00630658
-0.00632991
-0.00635904
-0.00639445
-0.00643662
-0.00648608
-0.00654334
-0.00660897
-0.00668353
-0.00676764
-0.00686192
-0.00696703
-0.00708366
-0.00721253
-0.0073544
-0.00751007
-0.00768041
-0.00786632
-0.00806876
-0.00828877
-0.00852746
-0.00878601
-0.00906569
-0.00936788
-0.00969402
-0.0100457
-0.0104245
-0.0108324
-0.0112711
-0.0117426
-0.012249
-0.0127926
-0.0133755
-0.0140001
-0.0146687
-0.0153837
-0.0161474
-0.0169622
-0.0178302
-0.0187535
-0.019734
-0.0207734
-0.021873
-0.0230338
-0.0242566
-0.0255415
-0.0268882
-0.0282961
-0.0297637
-0.0312894
-0.0328706
-0.0345045
-0.0361877
-0.0379162
-0.039686
-0.0414923
-0.0433305
-0.0451954
-0.0470822
-0.0489858
-0.0509014
-0.0528241
-0.0547495
-0.0566733
-0.0585914
-0.0605
-0.0623955
-0.0642744
-0.0661332
-0.0679684
-0.0697761
-0.0715525
-0.073293
-0.0749927
-0.0766461
-0.0782469
-0.079788
-0.0812616
-0.0826593
-0.0839716
-0.0851885
-0.0862995
-0.0872935
-0.00665634
-0.00662703
-0.00660029
-0.00657691
-0.00655511
-0.00653465
-0.0065158
-0.0064988
-0.00648383
-0.00647111
-0.00646087
-0.00645336
-0.00644887
-0.00644771
-0.0064502
-0.00645669
-0.00646756
-0.00648319
-0.00650399
-0.00653042
-0.00656292
-0.00660198
-0.0066481
-0.00670179
-0.00676361
-0.00683413
-0.00691393
-0.00700363
-0.00710389
-0.00721538
-0.0073388
-0.0074749
-0.00762449
-0.00778838
-0.00796746
-0.00816269
-0.00837506
-0.00860566
-0.00885564
-0.00912623
-0.00941877
-0.00973468
-0.0100755
-0.0104428
-0.0108384
-0.011264
-0.0117217
-0.0122135
-0.0127416
-0.013308
-0.0139152
-0.0145655
-0.0152612
-0.0160047
-0.0167982
-0.0176442
-0.0185446
-0.0195014
-0.0205163
-0.0215909
-0.0227263
-0.0239233
-0.0251823
-0.0265031
-0.0278853
-0.0293277
-0.0308287
-0.0323861
-0.0339973
-0.0356589
-0.0373674
-0.0391186
-0.0409081
-0.0427312
-0.044583
-0.0464585
-0.0483528
-0.0502607
-0.0521776
-0.0540988
-0.0560198
-0.0579364
-0.0598447
-0.0617407
-0.0636209
-0.0654814
-0.0673187
-0.0691287
-0.0709074
-0.0726501
-0.0743519
-0.0760072
-0.0776096
-0.0791521
-0.0806269
-0.0820255
-0.0833385
-0.084556
-0.0856674
-0.0866617
-0.00682882
-0.00679899
-0.0067717
-0.00674773
-0.00672528
-0.00670409
-0.00668443
-0.00666652
-0.00665055
-0.00663671
-0.00662525
-0.00661639
-0.00661042
-0.00660763
-0.00660833
-0.00661287
-0.0066216
-0.0066349
-0.00665318
-0.00667687
-0.00670641
-0.00674228
-0.00678495
-0.00683495
-0.00689281
-0.00695909
-0.00703437
-0.00711925
-0.00721437
-0.0073204
-0.00743803
-0.007568
-0.00771106
-0.00786806
-0.00803984
-0.00822732
-0.00843151
-0.00865343
-0.00889422
-0.00915507
-0.00943729
-0.00974226
-0.0100715
-0.0104265
-0.010809
-0.0112208
-0.0116638
-0.0121401
-0.0126516
-0.0132007
-0.0137895
-0.0144205
-0.0150958
-0.015818
-0.0165893
-0.0174121
-0.0182884
-0.0192203
-0.0202096
-0.021258
-0.0223667
-0.0235366
-0.0247683
-0.026062
-0.0274171
-0.0288329
-0.030308
-0.0318403
-0.0334273
-0.0350662
-0.0367533
-0.0384848
-0.0402563
-0.0420634
-0.043901
-0.0457644
-0.0476484
-0.0495481
-0.0514586
-0.053375
-0.0552929
-0.0572078
-0.0591155
-0.0610119
-0.0628933
-0.0647556
-0.066595
-0.0684074
-0.0701886
-0.0719337
-0.0736378
-0.0752951
-0.0768993
-0.0784433
-0.0799194
-0.081319
-0.0826328
-0.0838509
-0.0849628
-0.0859574
-0.00697668
-0.00694649
-0.0069188
-0.00689438
-0.0068714
-0.00684961
-0.00682925
-0.00681056
-0.0067937
-0.00677887
-0.00676628
-0.00675617
-0.0067488
-0.00674445
-0.00674343
-0.00674606
-0.00675269
-0.0067637
-0.00677946
-0.0068004
-0.00682694
-0.00685956
-0.00689871
-0.00694492
-0.00699869
-0.00706057
-0.00713114
-0.00721098
-0.00730072
-0.00740101
-0.00751254
-0.00763601
-0.00777218
-0.00792186
-0.00808588
-0.00826515
-0.00846062
-0.00867332
-0.00890434
-0.00915485
-0.00942611
-0.00971946
-0.0100364
-0.0103783
-0.010747
-0.0111442
-0.0115718
-0.0120316
-0.0125259
-0.0130567
-0.0136263
-0.014237
-0.0148911
-0.015591
-0.016339
-0.0171375
-0.0179887
-0.0188946
-0.0198572
-0.0208782
-0.021959
-0.0231007
-0.0243039
-0.0255691
-0.026896
-0.0282839
-0.0297316
-0.0312375
-0.0327993
-0.0344141
-0.0360786
-0.0377892
-0.0395417
-0.0413315
-0.0431541
-0.0450043
-0.0468774
-0.0487681
-0.0506715
-0.0525827
-0.054497
-0.0564098
-0.0583167
-0.0602135
-0.062096
-0.0639602
-0.0658019
-0.0676169
-0.0694007
-0.0711486
-0.0728552
-0.0745148
-0.0761211
-0.0776669
-0.0791445
-0.0805453
-0.0818601
-0.083079
-0.0841915
-0.0851866
-0.0071018
-0.0070714
-0.00704345
-0.00701871
-0.00699534
-0.00697306
-0.00695214
-0.00693278
-0.00691514
-0.00689942
-0.00688581
-0.00687454
-0.00686586
-0.00686004
-0.00685737
-0.00685816
-0.00686275
-0.00687148
-0.00688475
-0.00690294
-0.00692648
-0.00695581
-0.0069914
-0.00703372
-0.0070833
-0.00714066
-0.00720636
-0.00728097
-0.00736512
-0.00745942
-0.00756456
-0.00768122
-0.00781015
-0.00795213
-0.00810798
-0.00827859
-0.00846487
-0.00866783
-0.00888854
-0.00912813
-0.00938783
-0.00966894
-0.00997288
-0.0103011
-0.0106553
-0.0110372
-0.0114485
-0.0118912
-0.0123674
-0.0128791
-0.0134286
-0.0140182
-0.0146501
-0.0153269
-0.0160507
-0.016824
-0.0176491
-0.018528
-0.0194629
-0.0204554
-0.0215072
-0.0226195
-0.0237932
-0.0250287
-0.0263261
-0.0276849
-0.0291042
-0.0305824
-0.0321176
-0.0337071
-0.0353479
-0.0370364
-0.0387686
-0.0405402
-0.0423466
-0.0441829
-0.046044
-0.0479249
-0.0498206
-0.0517261
-0.0536364
-0.0555468
-0.0574527
-0.0593497
-0.0612334
-0.0630995
-0.0649437
-0.0667615
-0.0685483
-0.0702991
-0.0720087
-0.073671
-0.0752797
-0.0768277
-0.0783072
-0.0797096
-0.0810257
-0.0822457
-0.083359
-0.0843548
-0.00720603
-0.00717556
-0.00714749
-0.00712255
-0.0070989
-0.00707626
-0.00705489
-0.00703497
-0.00701668
-0.00700017
-0.00698565
-0.00697332
-0.00696343
-0.00695622
-0.00695198
-0.006951
-0.0069536
-0.00696012
-0.00697092
-0.00698639
-0.00700693
-0.00703296
-0.00706494
-0.00710334
-0.00714864
-0.00720138
-0.00726207
-0.0073313
-0.00740966
-0.00749776
-0.00759625
-0.00770583
-0.0078272
-0.00796114
-0.00810844
-0.00826996
-0.00844661
-0.00863936
-0.00884925
-0.00907739
-0.00932496
-0.00959325
-0.00988362
-0.0101975
-0.0105366
-0.0109024
-0.0112968
-0.0117217
-0.012179
-0.0126709
-0.0131996
-0.0137672
-0.0143762
-0.015029
-0.0157278
-0.016475
-0.0172731
-0.0181241
-0.0190303
-0.0199934
-0.0210152
-0.0220971
-0.0232401
-0.0244449
-0.0257117
-0.0270403
-0.0284299
-0.0298793
-0.0313867
-0.0329498
-0.0345656
-0.0362308
-0.0379417
-0.039694
-0.0414832
-0.0433045
-0.0451528
-0.0470232
-0.0489105
-0.0508095
-0.0527154
-0.054623
-0.0565277
-0.0584248
-0.0603097
-0.0621778
-0.0640246
-0.0658455
-0.0676357
-0.0693899
-0.0711028
-0.0727683
-0.0743799
-0.0759306
-0.0774124
-0.0788168
-0.0801347
-0.0813562
-0.0824707
-0.0834675
-0.00729115
-0.00726074
-0.00723267
-0.00720765
-0.00718384
-0.00716096
-0.00713924
-0.00711889
-0.00710005
-0.00708286
-0.00706753
-0.00705425
-0.00704323
-0.00703473
-0.00702901
-0.00702634
-0.00702702
-0.00703139
-0.00703977
-0.00705255
-0.00707011
-0.00709285
-0.00712121
-0.00715564
-0.00719662
-0.00724464
-0.00730024
-0.00736395
-0.00743636
-0.00751806
-0.0076097
-0.00771193
-0.00782547
-0.00795104
-0.00808944
-0.00824151
-0.00840811
-0.00859021
-0.00878882
-0.009005
-0.00923993
-0.00949484
-0.00977108
-0.0100701
-0.0103933
-0.0107425
-0.0111193
-0.0115257
-0.0119635
-0.0124349
-0.012942
-0.0134871
-0.0140724
-0.0147004
-0.0153734
-0.0160938
-0.0168641
-0.0176864
-0.018563
-0.0194958
-0.0204868
-0.0215373
-0.0226486
-0.0238217
-0.0250569
-0.0263541
-0.027713
-0.0291325
-0.030611
-0.0321465
-0.0337362
-0.035377
-0.0370654
-0.0387973
-0.0405683
-0.0423735
-0.0442082
-0.0460672
-0.0479454
-0.0498374
-0.0517383
-0.0536428
-0.055546
-0.057443
-0.0593291
-0.0611993
-0.063049
-0.0648733
-0.0666671
-0.0684252
-0.0701419
-0.0718111
-0.0734262
-0.0749801
-0.0764648
-0.0778718
-0.079192
-0.0804154
-0.0815317
-0.0825299
-0.00735886
-0.00732865
-0.00730069
-0.0072757
-0.00725184
-0.00722882
-0.00720688
-0.00718619
-0.0071669
-0.00714915
-0.00713312
-0.00711898
-0.00710695
-0.00709725
-0.00709013
-0.00708585
-0.0070847
-0.00708697
-0.00709301
-0.00710314
-0.00711775
-0.00713722
-0.00716197
-0.00719242
-0.00722903
-0.00727229
-0.0073227
-0.00738079
-0.00744711
-0.00752226
-0.00760685
-0.00770152
-0.00780696
-0.00792389
-0.00805308
-0.00819534
-0.00835153
-0.00852257
-0.00870945
-0.00891323
-0.00913502
-0.00937605
-0.00963761
-0.0099211
-0.010228
-0.01056
-0.0109186
-0.0113059
-0.0117236
-0.0121738
-0.0126587
-0.0131805
-0.0137415
-0.014344
-0.0149905
-0.0156835
-0.0164252
-0.017218
-0.0180643
-0.0189661
-0.0199253
-0.0209437
-0.0220225
-0.0231629
-0.0243655
-0.0256305
-0.0269577
-0.0283462
-0.0297947
-0.0313014
-0.032864
-0.0344794
-0.0361442
-0.0378546
-0.0396062
-0.0413946
-0.0432147
-0.0450614
-0.0469297
-0.0488141
-0.0507094
-0.0526104
-0.0545118
-0.0564086
-0.0582957
-0.0601681
-0.0620209
-0.0638488
-0.0656467
-0.0674091
-0.0691302
-0.0708037
-0.0724229
-0.0739806
-0.0754689
-0.0768791
-0.0782022
-0.0794282
-0.0805467
-0.0815468
-0.0074108
-0.00738089
-0.00735316
-0.0073283
-0.00730449
-0.00728144
-0.00725937
-0.00723846
-0.00721884
-0.00720062
-0.00718399
-0.0071691
-0.00715615
-0.00714535
-0.00713693
-0.00713113
-0.00712822
-0.00712849
-0.00713223
-0.00713979
-0.0071515
-0.00716773
-0.00718887
-0.00721535
-0.00724758
-0.00728604
-0.0073312
-0.00738359
-0.00744372
-0.00751218
-0.00758955
-0.00767647
-0.0077736
-0.00788163
-0.00800133
-0.00813346
-0.00827889
-0.0084385
-0.00861326
-0.00880419
-0.0090124
-0.00923907
-0.00948546
-0.00975295
-0.010043
-0.0103571
-0.0106971
-0.0110646
-0.0114617
-0.0118902
-0.0123523
-0.0128502
-0.0133862
-0.0139627
-0.0145822
-0.0152469
-0.0159595
-0.0167222
-0.0175375
-0.0184076
-0.0193344
-0.0203198
-0.0213653
-0.0224723
-0.0236415
-0.0248733
-0.0261678
-0.0275243
-0.0289419
-0.0304189
-0.0319532
-0.0335421
-0.0351823
-0.0368701
-0.0386015
-0.0403719
-0.0421764
-0.0440101
-0.0458677
-0.0477438
-0.049633
-0.05153
-0.0534293
-0.0553256
-0.0572138
-0.0590884
-0.0609444
-0.0627763
-0.0645786
-0.0663458
-0.0680718
-0.0697502
-0.0713742
-0.0729365
-0.074429
-0.0758431
-0.0771697
-0.0783989
-0.0795203
-0.080523
-0.00744851
-0.007419
-0.0073916
-0.00736697
-0.00734331
-0.00732033
-0.00729824
-0.0072772
-0.00725734
-0.00723876
-0.00722163
-0.00720609
-0.00719232
-0.00718052
-0.00717089
-0.00716367
-0.0071591
-0.00715744
-0.00715897
-0.00716401
-0.00717288
-0.00718592
-0.00720349
-0.00722601
-0.00725386
-0.0072875
-0.00732738
-0.00737399
-0.00742786
-0.00748951
-0.00755953
-0.00763853
-0.00772714
-0.00782606
-0.007936
-0.00805774
-0.00819209
-0.00833993
-0.00850219
-0.00867989
-0.0088741
-0.00908596
-0.00931673
-0.00956774
-0.00984041
-0.0101363
-0.010457
-0.0108043
-0.0111801
-0.0115864
-0.0120252
-0.0124987
-0.0130092
-0.0135592
-0.0141509
-0.014787
-0.0154699
-0.0162019
-0.0169857
-0.0178233
-0.0187171
-0.0196689
-0.0206805
-0.0217533
-0.0228883
-0.0240862
-0.0253472
-0.0266709
-0.0280567
-0.029503
-0.0310081
-0.0325694
-0.034184
-0.0358483
-0.0375583
-0.0393098
-0.0410979
-0.0429176
-0.0447637
-0.0466308
-0.0485133
-0.0504057
-0.0523026
-0.0541982
-0.0560873
-0.0579642
-0.0598235
-0.0616596
-0.0634668
-0.0652393
-0.0669707
-0.0686547
-0.0702841
-0.0718516
-0.0733491
-0.0747679
-0.0760988
-0.0773319
-0.0784569
-0.0794627
-0.00747342
-0.00744443
-0.00741745
-0.00739314
-0.00736972
-0.00734689
-0.00732488
-0.00730381
-0.00728381
-0.00726497
-0.00724744
-0.00723135
-0.00721687
-0.00720416
-0.00719343
-0.00718488
-0.00717873
-0.00717523
-0.00717464
-0.00717723
-0.00718332
-0.00719322
-0.00720728
-0.00722586
-0.00724935
-0.00727817
-0.00731274
-0.00735355
-0.00740107
-0.00745583
-0.00751839
-0.00758932
-0.00766926
-0.00775885
-0.00785881
-0.00796989
-0.00809288
-0.00822864
-0.00837808
-0.00854218
-0.00872199
-0.00891865
-0.00913337
-0.00936745
-0.0096223
-0.00989942
-0.0102004
-0.0105271
-0.0108812
-0.0112647
-0.0116796
-0.0121283
-0.0126129
-0.0131358
-0.0136994
-0.0143063
-0.014959
-0.0156599
-0.0164116
-0.0172164
-0.0180766
-0.0189943
-0.0199714
-0.0210094
-0.0221095
-0.0232728
-0.0244995
-0.0257897
-0.0271428
-0.0285576
-0.0300326
-0.0315654
-0.0331534
-0.0347932
-0.036481
-0.0382126
-0.0399833
-0.0417882
-0.043622
-0.0454793
-0.0473545
-0.0492419
-0.0511358
-0.0530305
-0.0549203
-0.0567995
-0.0586623
-0.0605028
-0.0623152
-0.0640934
-0.0658308
-0.0675209
-0.0691565
-0.07073
-0.0722332
-0.0736575
-0.0749934
-0.0762313
-0.0773605
-0.0783702
-0.00748691
-0.00745851
-0.00743205
-0.00740814
-0.00738505
-0.00736247
-0.00734062
-0.00731962
-0.00729957
-0.00728057
-0.00726274
-0.0072462
-0.0072311
-0.00721759
-0.00720585
-0.00719606
-0.00718843
-0.00718318
-0.00718055
-0.00718078
-0.00718417
-0.007191
-0.00720159
-0.00721627
-0.00723543
-0.00725943
-0.00728869
-0.00732366
-0.00736479
-0.00741259
-0.00746758
-0.00753034
-0.00760144
-0.00768155
-0.00777133
-0.00787152
-0.00798289
-0.00810628
-0.00824259
-0.00839276
-0.00855783
-0.0087389
-0.00893718
-0.00915393
-0.00939054
-0.00964849
-0.00992937
-0.0102349
-0.0105668
-0.0109271
-0.0113179
-0.0117413
-0.0121995
-0.0126949
-0.01323
-0.0138074
-0.0144294
-0.0150988
-0.015818
-0.0165895
-0.0174158
-0.0182989