/*--------------------------------*- C++ -*----------------------------------*\
| =========                 |                                                 |
| \\      /  F ield         | OpenFOAM: The Open Source CFD Toolbox           |
|  \\    /   O peration     | Version:  2406                                  |
|   \\  /    A nd           | Website:  www.openfoam.com                      |
|    \\/     M anipulation  |                                                 |
\*---------------------------------------------------------------------------*/
FoamFile
{
    version     2.0;
    format      ascii;
    arch        "LSB;label=32;scalar=64";
    class       surfaceScalarField;
    location    "15";
    object      phi;
}
// * * * * * * * * * * * * * * * * * * * * * * * * * * * * * * * * * * * * * //

dimensions      [0 3 -1 0 0 0 0];

oriented        oriented;

internalField   nonuniform List<scalar> 
79600
(
-1.19227e-10
4.52738e-07
-4.5259e-07
-1.49365e-09
1.35864e-06
-1.35727e-06
-5.0995e-09
2.27886e-06
-2.27526e-06
-1.20049e-08
3.21273e-06
-3.20583e-06
-2.33336e-08
4.15951e-06
-4.14818e-06
-4.02577e-08
5.11841e-06
-5.10149e-06
-6.39888e-08
6.0886e-06
-6.06487e-06
-9.57688e-08
7.06921e-06
-7.03743e-06
-1.36859e-07
8.05935e-06
-8.01826e-06
-1.88529e-07
9.05814e-06
-9.00647e-06
-2.52047e-07
1.00647e-05
-1.00012e-05
-3.28663e-07
1.10781e-05
-1.10015e-05
-4.19605e-07
1.20976e-05
-1.20067e-05
-5.26058e-07
1.31225e-05
-1.3016e-05
-6.49158e-07
1.4152e-05
-1.40289e-05
-7.89977e-07
1.51856e-05
-1.50448e-05
-9.49513e-07
1.62229e-05
-1.60634e-05
-1.12868e-06
1.72636e-05
-1.70845e-05
-1.3283e-06
1.83076e-05
-1.8108e-05
-1.54909e-06
1.93551e-05
-1.91343e-05
-1.79166e-06
2.04063e-05
-2.01637e-05
-2.05649e-06
2.14618e-05
-2.11969e-05
-2.34397e-06
2.25224e-05
-2.22349e-05
-2.65433e-06
2.35893e-05
-2.32789e-05
-2.98772e-06
2.46637e-05
-2.43303e-05
-3.34412e-06
2.57474e-05
-2.5391e-05
-3.72344e-06
2.68423e-05
-2.6463e-05
-4.12543e-06
2.79505e-05
-2.75485e-05
-4.54977e-06
2.90747e-05
-2.86503e-05
-4.996e-06
3.02174e-05
-2.97711e-05
-5.46361e-06
3.13816e-05
-3.0914e-05
-5.95196e-06
3.25706e-05
-3.20822e-05
-6.46037e-06
3.37875e-05
-3.3279e-05
-6.98809e-06
3.50357e-05
-3.4508e-05
-7.53429e-06
3.63188e-05
-3.57726e-05
-8.09812e-06
3.76402e-05
-3.70764e-05
-8.67869e-06
3.90033e-05
-3.84227e-05
-9.27508e-06
4.04113e-05
-3.98149e-05
-9.88634e-06
4.18673e-05
-4.12561e-05
-1.05115e-05
4.33741e-05
-4.27489e-05
-1.11496e-05
4.4934e-05
-4.4296e-05
-1.17996e-05
4.65491e-05
-4.58991e-05
-1.24604e-05
4.82207e-05
-4.75598e-05
-1.31311e-05
4.99497e-05
-4.9279e-05
-1.38106e-05
5.17362e-05
-5.10567e-05
-1.44977e-05
5.35796e-05
-5.28925e-05
-1.51912e-05
5.54785e-05
-5.4785e-05
-1.589e-05
5.74304e-05
-5.67317e-05
-1.65927e-05
5.94321e-05
-5.87294e-05
-1.72979e-05
6.14791e-05
-6.07739e-05
-1.80042e-05
6.35661e-05
-6.28598e-05
-1.871e-05
6.56865e-05
-6.49807e-05
-1.94136e-05
6.78324e-05
-6.71288e-05
-2.01134e-05
6.99952e-05
-6.92954e-05
-2.08075e-05
7.21648e-05
-7.14707e-05
-2.1494e-05
7.433e-05
-7.36435e-05
-2.21709e-05
7.64786e-05
-7.58016e-05
-2.28363e-05
7.85974e-05
-7.7932e-05
-2.34882e-05
8.06722e-05
-8.00203e-05
-2.41246e-05
8.26883e-05
-8.20518e-05
-2.47438e-05
8.463e-05
-8.40109e-05
-2.53439e-05
8.64817e-05
-8.58816e-05
-2.59234e-05
8.82273e-05
-8.76478e-05
-2.6481e-05
8.98511e-05
-8.92935e-05
-2.70156e-05
9.13377e-05
-9.08031e-05
-2.75267e-05
9.26727e-05
-9.21617e-05
-2.80138e-05
9.38427e-05
-9.33556e-05
-2.84771e-05
9.48358e-05
-9.43725e-05
-2.89172e-05
9.56421e-05
-9.5202e-05
-2.93354e-05
9.62536e-05
-9.58355e-05
-2.97331e-05
9.66648e-05
-9.6267e-05
-3.01125e-05
9.68726e-05
-9.64931e-05
-3.04763e-05
9.68766e-05
-9.65128e-05
-3.08275e-05
9.66791e-05
-9.63279e-05
-3.11695e-05
9.62845e-05
-9.59425e-05
-3.15061e-05
9.56998e-05
-9.53633e-05
-3.18412e-05
9.49336e-05
-9.45985e-05
-3.21787e-05
9.39956e-05
-9.3658e-05
-3.25228e-05
9.28966e-05
-9.25525e-05
-3.28772e-05
9.16472e-05
-9.12927e-05
-3.32456e-05
9.02573e-05
-8.98889e-05
-3.3631e-05
8.87355e-05
-8.83501e-05
-3.40364e-05
8.70885e-05
-8.66832e-05
-3.44637e-05
8.532e-05
-8.48927e-05
-3.49146e-05
8.34309e-05
-8.298e-05
-3.53899e-05
8.14184e-05
-8.09431e-05
-3.58899e-05
7.92762e-05
-7.87762e-05
-3.64141e-05
7.69943e-05
-7.64701e-05
-3.69617e-05
7.45594e-05
-7.40119e-05
-3.7531e-05
7.19551e-05
-7.13858e-05
-3.812e-05
6.91624e-05
-6.85733e-05
-3.87267e-05
6.61606e-05
-6.5554e-05
-3.93483e-05
6.29277e-05
-6.2306e-05
-3.99823e-05
5.94411e-05
-5.88071e-05
-4.0626e-05
5.56786e-05
-5.50349e-05
-4.12767e-05
5.16186e-05
-5.09679e-05
-4.1932e-05
4.72412e-05
-4.6586e-05
-4.25893e-05
4.25281e-05
-4.18707e-05
-4.32467e-05
3.7463e-05
-3.68057e-05
3.20323e-05
-4.3902e-05
-3.1377e-05
1.35225e-09
4.51386e-07
4.4337e-09
1.35556e-06
8.24051e-09
2.27505e-06
1.17016e-08
3.20927e-06
1.36835e-08
4.15753e-06
1.2997e-08
5.1191e-06
8.40656e-09
6.09319e-06
-1.36097e-09
7.07898e-06
-1.7606e-08
8.0756e-06
-4.16453e-08
9.08218e-06
-7.48009e-08
1.00978e-05
-1.18387e-07
1.11217e-05
-1.737e-07
1.2153e-05
-2.42e-07
1.31908e-05
-3.24505e-07
1.42345e-05
-4.22374e-07
1.52835e-05
-5.36695e-07
1.63372e-05
-6.68472e-07
1.73954e-05
-8.18618e-07
1.84578e-05
-9.87939e-07
1.95244e-05
-1.17713e-06
2.05955e-05
-1.38677e-06
2.16714e-05
-1.6173e-06
2.27529e-05
-1.86905e-06
2.3841e-05
-2.14219e-06
2.49369e-05
-2.43677e-06
2.6042e-05
-2.75272e-06
2.71582e-05
-3.08983e-06
2.82876e-05
-3.44775e-06
2.94326e-05
-3.82605e-06
3.05957e-05
-4.22414e-06
3.17797e-05
-4.64139e-06
3.29878e-05
-5.07703e-06
3.42231e-05
-5.53023e-06
3.54889e-05
-6.00011e-06
3.67887e-05
-6.48572e-06
3.81258e-05
-6.98606e-06
3.95036e-05
-7.50011e-06
4.09254e-05
-8.02681e-06
4.2394e-05
-8.56509e-06
4.39124e-05
-9.11389e-06
4.54828e-05
-9.67209e-06
4.71073e-05
-1.02386e-05
4.87872e-05
-1.08124e-05
5.05234e-05
-1.13922e-05
5.23161e-05
-1.1977e-05
5.41645e-05
-1.25657e-05
5.60671e-05
-1.3157e-05
5.80217e-05
-1.37498e-05
6.00249e-05
-1.43428e-05
6.20721e-05
-1.49347e-05
6.41581e-05
-1.55243e-05
6.6276e-05
-1.611e-05
6.84182e-05
-1.66906e-05
7.05758e-05
-1.72646e-05
7.27388e-05
-1.78305e-05
7.48958e-05
-1.83868e-05
7.70348e-05
-1.8932e-05
7.91426e-05
-1.94646e-05
8.12049e-05
-1.99834e-05
8.32071e-05
-2.04871e-05
8.51337e-05
-2.09744e-05
8.6969e-05
-2.14445e-05
8.86974e-05
-2.18966e-05
9.03032e-05
-2.23302e-05
9.17714e-05
-2.27453e-05
9.30877e-05
-2.31419e-05
9.42393e-05
-2.35205e-05
9.52145e-05
-2.38822e-05
9.60038e-05
-2.42282e-05
9.65996e-05
-2.45602e-05
9.69967e-05
-2.48803e-05
9.71926e-05
-2.51908e-05
9.71872e-05
-2.54947e-05
9.69829e-05
-2.57947e-05
9.65846e-05
-2.60941e-05
9.59992e-05
-2.63961e-05
9.52355e-05
-2.67039e-05
9.43034e-05
-2.70207e-05
9.32134e-05
-2.73494e-05
9.19759e-05
-2.76928e-05
9.06006e-05
-2.80531e-05
8.90959e-05
-2.84323e-05
8.74677e-05
-2.88319e-05
8.57196e-05
-2.92528e-05
8.38518e-05
-2.96955e-05
8.18611e-05
-3.01599e-05
7.97407e-05
-3.06456e-05
7.74801e-05
-3.11518e-05
7.50655e-05
-3.1677e-05
7.24803e-05
-3.22199e-05
6.97053e-05
-3.27787e-05
6.67194e-05
-3.33515e-05
6.35005e-05
-3.39366e-05
6.00261e-05
-3.45319e-05
5.62739e-05
-3.51359e-05
5.22226e-05
-3.57467e-05
4.7852e-05
-3.63628e-05
4.31442e-05
-3.6983e-05
3.80832e-05
3.26552e-05
-3.76059e-05
2.74215e-09
4.48643e-07
9.96782e-09
1.34833e-06
2.06871e-08
2.26434e-06
3.38381e-08
3.19612e-06
4.82912e-08
4.14308e-06
6.28555e-08
5.10453e-06
7.62867e-08
6.07976e-06
8.72962e-08
7.06797e-06
9.45605e-08
8.06833e-06
9.67313e-08
9.08001e-06
9.24478e-08
1.01021e-05
8.03482e-08
1.11338e-05
5.90828e-08
1.21742e-05
2.7327e-08
1.32226e-05
-1.62048e-08
1.4278e-05
-7.27461e-08
1.534e-05
-1.43465e-07
1.6408e-05
-2.29449e-07
1.74814e-05
-3.31696e-07
1.856e-05
-4.51101e-07
1.96438e-05
-5.88444e-07
2.07328e-05
-7.44383e-07
2.18273e-05
-9.19444e-07
2.2928e-05
-1.11402e-06
2.40356e-05
-1.32835e-06
2.51512e-05
-1.56255e-06
2.62762e-05
-1.81658e-06
2.74123e-05
-2.09026e-06
2.85613e-05
-2.38327e-06
2.97256e-05
-2.69516e-06
3.09076e-05
-3.02536e-06
3.21099e-05
-3.37318e-06
3.33356e-05
-3.73784e-06
3.45878e-05
-4.11846e-06
3.58695e-05
-4.51406e-06
3.71843e-05
-4.92364e-06
3.85354e-05
-5.34611e-06
3.99261e-05
-5.78037e-06
4.13596e-05
-6.22526e-06
4.28389e-05
-6.67963e-06
4.43668e-05
-7.14231e-06
4.59455e-05
-7.61215e-06
4.75771e-05
-8.08798e-06
4.92631e-05
-8.56865e-06
5.10041e-05
-9.05304e-06
5.28004e-05
-9.54e-06
5.46514e-05
-1.00284e-05
5.65556e-05
-1.05172e-05
5.85106e-05
-1.10053e-05
6.05129e-05
-1.14915e-05
6.25584e-05
-1.19748e-05
6.46413e-05
-1.24541e-05
6.67552e-05
-1.29282e-05
6.88923e-05
-1.3396e-05
7.10437e-05
-1.38565e-05
7.31992e-05
-1.43085e-05
7.53479e-05
-1.4751e-05
7.74774e-05
-1.5183e-05
7.95746e-05
-1.56036e-05
8.16255e-05
-1.60119e-05
8.36154e-05
-1.64072e-05
8.5529e-05
-1.67889e-05
8.73507e-05
-1.71566e-05
8.90651e-05
-1.75101e-05
9.06567e-05
-1.78493e-05
9.21107e-05
-1.81747e-05
9.34131e-05
-1.84867e-05
9.45513e-05
-1.87863e-05
9.55141e-05
-1.90745e-05
9.6292e-05
-1.93528e-05
9.68779e-05
-1.96229e-05
9.72669e-05
-1.98868e-05
9.74565e-05
-2.01467e-05
9.74471e-05
-2.04049e-05
9.72411e-05
-2.06641e-05
9.68437e-05
-2.09266e-05
9.62618e-05
-2.11952e-05
9.55041e-05
-2.14722e-05
9.45805e-05
-2.176e-05
9.35012e-05
-2.20609e-05
9.22767e-05
-2.23765e-05
9.09163e-05
-2.27086e-05
8.9428e-05
-2.30584e-05
8.78175e-05
-2.34266e-05
8.60879e-05
-2.38138e-05
8.4239e-05
-2.42202e-05
8.22675e-05
-2.46455e-05
8.01659e-05
-2.50892e-05
7.79238e-05
-2.55506e-05
7.5527e-05
-2.60288e-05
7.29585e-05
-2.65227e-05
7.01992e-05
-2.70312e-05
6.72279e-05
-2.75531e-05
6.40224e-05
-2.80873e-05
6.05604e-05
-2.86328e-05
5.68194e-05
-2.91886e-05
5.27783e-05
-2.97538e-05
4.84173e-05
-3.03278e-05
4.37182e-05
-3.09098e-05
3.86652e-05
3.32448e-05
-3.14995e-05
4.01856e-09
4.44625e-07
1.50602e-08
1.33729e-06
3.21602e-08
2.24724e-06
5.4278e-08
3.174e-06
8.03013e-08
4.11705e-06
1.09051e-07
5.07578e-06
1.3929e-07
6.04952e-06
1.69728e-07
7.03753e-06
1.99034e-07
8.03903e-06
2.25845e-07
9.0532e-06
2.48777e-07
1.00792e-05
2.66435e-07
1.11162e-05
2.77431e-07
1.21632e-05
2.80391e-07
1.32196e-05
2.73976e-07
1.42845e-05
2.56889e-07
1.53571e-05
2.27893e-07
1.6437e-05
1.85825e-07
1.75235e-05
1.2961e-07
1.86163e-05
5.82724e-08
1.97151e-05
-2.90502e-08
2.08201e-05
-1.33097e-07
2.19314e-05
-2.54475e-07
2.30494e-05
-3.93649e-07
2.41748e-05
-5.50937e-07
2.53085e-05
-7.26508e-07
2.64518e-05
-9.20377e-07
2.76061e-05
-1.13241e-06
2.87734e-05
-1.36231e-06
2.99555e-05
-1.60965e-06
3.11549e-05
-1.87387e-06
3.23741e-05
-2.15427e-06
3.3616e-05
-2.45004e-06
3.48835e-05
-2.76025e-06
3.61798e-05
-3.08391e-06
3.7508e-05
-3.41993e-06
3.88714e-05
-3.76716e-06
4.02734e-05
-4.12442e-06
4.17169e-05
-4.49049e-06
4.3205e-05
-4.86414e-06
4.47404e-05
-5.24412e-06
4.63255e-05
-5.62921e-06
4.79622e-05
-6.01819e-06
4.9652e-05
-6.40988e-06
5.13958e-05
-6.80312e-06
5.31937e-05
-7.19678e-06
5.50451e-05
-7.58979e-06
5.69486e-05
-7.98109e-06
5.89019e-05
-8.36968e-06
6.09015e-05
-8.75459e-06
6.29433e-05
-9.13488e-06
6.50216e-05
-9.50966e-06
6.713e-05
-9.87808e-06
6.92607e-05
-1.02393e-05
7.14049e-05
-1.05926e-05
7.35525e-05
-1.09372e-05
7.56925e-05
-1.12725e-05
7.78127e-05
-1.15979e-05
7.99e-05
-1.1913e-05
8.19406e-05
-1.22173e-05
8.39197e-05
-1.25107e-05
8.58223e-05
-1.27931e-05
8.76331e-05
-1.30645e-05
8.93365e-05
-1.33252e-05
9.09174e-05
-1.35757e-05
9.23612e-05
-1.38167e-05
9.36541e-05
-1.40491e-05
9.47837e-05
-1.42739e-05
9.57389e-05
-1.44926e-05
9.65106e-05
-1.47066e-05
9.70919e-05
-1.49177e-05
9.74779e-05
-1.51276e-05
9.76665e-05
-1.53384e-05
9.76579e-05
-1.55521e-05
9.74548e-05
-1.57707e-05
9.70623e-05
-1.59962e-05
9.64873e-05
-1.62306e-05
9.57385e-05
-1.64756e-05
9.48255e-05
-1.67329e-05
9.37585e-05
-1.70037e-05
9.25476e-05
-1.72894e-05
9.12019e-05
-1.75906e-05
8.97292e-05
-1.79081e-05
8.8135e-05
-1.82422e-05
8.64219e-05
-1.8593e-05
8.45898e-05
-1.89603e-05
8.26348e-05
-1.93438e-05
8.05495e-05
-1.97432e-05
7.83231e-05
-2.01577e-05
7.59415e-05
-2.05869e-05
7.33877e-05
-2.10302e-05
7.06425e-05
-2.1487e-05
6.76847e-05
-2.19569e-05
6.44923e-05
-2.24393e-05
6.10428e-05
-2.29342e-05
5.73143e-05
-2.34412e-05
5.32854e-05
-2.39603e-05
4.89364e-05
-2.44916e-05
4.42495e-05
-2.50352e-05
3.92088e-05
3.38008e-05
-2.55912e-05
5.17712e-09
4.39448e-07
1.96942e-08
1.32278e-06
4.26215e-08
2.22431e-06
7.29511e-08
3.14367e-06
1.096e-07
4.0804e-06
1.51415e-07
5.03397e-06
1.97176e-07
6.00376e-06
2.4561e-07
6.98909e-06
2.95392e-07
7.98925e-06
3.45158e-07
9.00343e-06
3.93515e-07
1.00308e-05
4.39056e-07
1.10706e-05
4.80364e-07
1.21219e-05
5.16034e-07
1.31839e-05
5.44684e-07
1.42558e-05
5.64969e-07
1.53368e-05
5.75593e-07
1.64263e-05
5.75331e-07
1.75237e-05
5.63038e-07
1.86285e-05
5.37664e-07
1.97405e-05
4.98269e-07
2.08595e-05
4.44036e-07
2.19856e-05
3.74278e-07
2.31191e-05
2.88455e-07
2.42606e-05
1.86173e-07
2.54108e-05
6.71962e-08
2.65707e-05
-6.85508e-08
2.77419e-05
-2.20984e-07
2.89258e-05
-3.89859e-07
3.01244e-05
-5.74776e-07
3.13398e-05
-7.75186e-07
3.25746e-05
-9.904e-07
3.38312e-05
-1.2196e-06
3.51127e-05
-1.46184e-06
3.6422e-05
-1.7161e-06
3.77622e-05
-1.98123e-06
3.91366e-05
-2.25606e-06
4.05482e-05
-2.53932e-06
4.20002e-05
-2.82975e-06
4.34954e-05
-3.12603e-06
4.50367e-05
-3.42687e-06
4.66263e-05
-3.73097e-06
4.82663e-05
-4.03708e-06
4.99581e-05
-4.34397e-06
5.17027e-05
-4.65047e-06
5.35002e-05
-4.95544e-06
5.53501e-05
-5.25784e-06
5.7251e-05
-5.55667e-06
5.92007e-05
-5.851e-06
6.11959e-05
-6.13999e-06
6.32323e-05
-6.42285e-06
6.53045e-05
-6.69889e-06
6.74061e-05
-6.96747e-06
6.95293e-05
-7.22804e-06
7.16655e-05
-7.48015e-06
7.38046e-05
-7.72342e-06
7.59357e-05
-7.95758e-06
7.80468e-05
-8.18247e-06
8.01249e-05
-8.39803e-06
8.21561e-05
-8.60435e-06
8.4126e-05
-8.80164e-06
8.60196e-05
-8.99028e-06
8.78217e-05
-9.1708e-06
8.9517e-05
-9.34389e-06
9.10905e-05
-9.51042e-06
9.25277e-05
-9.67143e-06
9.38151e-05
-9.8281e-06
9.49404e-05
-9.98179e-06
9.58926e-05
-1.0134e-05
9.66628e-05
-1.02862e-05
9.72441e-05
-1.04403e-05
9.76319e-05
-1.05978e-05
9.7824e-05
-1.07604e-05
9.78206e-05
-1.093e-05
9.76244e-05
-1.1108e-05
9.72403e-05
-1.12959e-05
9.66753e-05
-1.14952e-05
9.59377e-05
-1.17068e-05
9.50371e-05
-1.19319e-05
9.39835e-05
-1.21709e-05
9.27866e-05
-1.24245e-05
9.14555e-05
-1.26928e-05
8.99976e-05
-1.2976e-05
8.84181e-05
-1.32739e-05
8.67198e-05
-1.35862e-05
8.49021e-05
-1.39127e-05
8.29612e-05
-1.42528e-05
8.08897e-05
-1.46064e-05
7.86766e-05
-1.49729e-05
7.6308e-05
-1.53522e-05
7.37671e-05
-1.57442e-05
7.10344e-05
-1.61488e-05
6.80893e-05
-1.65662e-05
6.49097e-05
-1.69967e-05
6.14734e-05
-1.74408e-05
5.77584e-05
-1.7899e-05
5.37436e-05
-1.83721e-05
4.94095e-05
-1.88607e-05
4.47381e-05
-1.93656e-05
3.97137e-05
3.43229e-05
-1.98878e-05
6.21639e-09
4.33231e-07
2.3862e-08
1.30513e-06
5.20516e-08
2.19612e-06
8.98199e-08
3.1059e-06
1.36124e-07
4.0341e-06
1.89846e-07
4.98025e-06
2.49801e-07
5.9438e-06
3.14741e-07
6.92415e-06
3.83362e-07
7.92063e-06
4.54315e-07
8.93248e-06
5.26215e-07
9.95894e-06
5.97651e-07
1.09992e-05
6.67198e-07
1.20524e-05
7.33433e-07
1.31177e-05
7.94945e-07
1.41943e-05
8.50352e-07
1.52814e-05
8.98316e-07
1.63784e-05
9.37557e-07
1.74845e-05
9.66872e-07
1.85992e-05
9.85144e-07
1.97222e-05
9.91364e-07
2.08533e-05
9.84638e-07
2.19924e-05
9.64205e-07
2.31396e-05
9.29447e-07
2.42953e-05
8.79894e-07
2.54603e-05
8.1524e-07
2.66354e-05
7.35339e-07
2.78218e-05
6.40217e-07
2.90209e-05
5.30064e-07
3.02345e-05
4.05236e-07
3.14647e-05
2.66251e-07
3.27135e-05
1.13778e-07
3.39837e-05
-5.13726e-08
3.52779e-05
-2.2826e-07
3.65989e-05
-4.15831e-07
3.79498e-05
-6.12931e-07
3.93337e-05
-8.18329e-07
4.07536e-05
-1.03073e-06
4.22126e-05
-1.24881e-06
4.37135e-05
-1.4712e-06
4.52591e-05
-1.69656e-06
4.68517e-05
-1.92353e-06
4.84933e-05
-2.15081e-06
5.01854e-05
-2.37714e-06
5.1929e-05
-2.60133e-06
5.37244e-05
-2.82224e-06
5.5571e-05
-3.03885e-06
5.74676e-05
-3.25019e-06
5.9412e-05
-3.45543e-06
6.14011e-05
-3.6538e-06
6.34306e-05
-3.84467e-06
6.54954e-05
-4.02751e-06
6.75889e-05
-4.2019e-06
6.97037e-05
-4.36752e-06
7.18311e-05
-4.5242e-06
7.39613e-05
-4.67188e-06
7.60834e-05
-4.81062e-06
7.81856e-05
-4.94062e-06
8.02549e-05
-5.06222e-06
8.22777e-05
-5.17591e-06
8.42397e-05
-5.28232e-06
8.61261e-05
-5.38223e-06
8.79216e-05
-5.47657e-06
8.96114e-05
-5.56644e-06
9.11803e-05
-5.65304e-06
9.26143e-05
-5.73773e-06
9.38998e-05
-5.82198e-06
9.50246e-05
-5.90731e-06
9.59779e-05
-5.99536e-06
9.67509e-05
-6.08775e-06
9.73365e-05
-6.18611e-06
9.77303e-05
-6.29203e-06
9.79299e-05
-6.407e-06
9.79355e-05
-6.53239e-06
9.77497e-05
-6.66939e-06
9.73773e-05
-6.81902e-06
9.68249e-05
-6.98206e-06
9.61008e-05
-7.15906e-06
9.52141e-05
-7.35034e-06
9.41748e-05
-7.55598e-06
9.29923e-05
-7.77584e-06
9.16754e-05
-8.00964e-06
9.02314e-05
-8.25692e-06
8.86654e-05
-8.51716e-06
8.69801e-05
-8.78981e-06
8.51748e-05
-9.07436e-06
8.32458e-05
-9.37035e-06
8.11856e-05
-9.67749e-06
7.89838e-05
-9.99565e-06
7.66262e-05
-1.03249e-05
7.40963e-05
-1.06656e-05
7.13751e-05
-1.10182e-05
6.84419e-05
-1.13835e-05
6.5275e-05
-1.17625e-05
6.18524e-05
-1.21563e-05
5.81522e-05
-1.25662e-05
5.41535e-05
-1.29935e-05
4.98368e-05
-1.34397e-05
4.51843e-05
-1.39062e-05
4.01802e-05
3.48112e-05
-1.43945e-05
7.1363e-09
4.26095e-07
2.75637e-08
1.2847e-06
6.04487e-08
2.16323e-06
1.04877e-07
3.06147e-06
1.59855e-07
3.97912e-06
2.24313e-07
4.91579e-06
2.97108e-07
5.87101e-06
3.77032e-07
6.84423e-06
4.62816e-07
7.83484e-06
5.53137e-07
8.84216e-06
6.46632e-07
9.86544e-06
7.41901e-07
1.09039e-05
8.37526e-07
1.19567e-05
9.32078e-07
1.30231e-05
1.02413e-06
1.41022e-05
1.11229e-06
1.51933e-05
1.19517e-06
1.62955e-05
1.27146e-06
1.74082e-05
1.3399e-06
1.85308e-05
1.39933e-06
1.96628e-05
1.44867e-06
2.0804e-05
1.48696e-06
2.19541e-05
1.51336e-06
2.31132e-05
1.52718e-06
2.42815e-05
1.52788e-06
2.54596e-05
1.51508e-06
2.66482e-05
1.48855e-06
2.78483e-05
1.44826e-06
2.90612e-05
1.39433e-06
3.02885e-05
1.32707e-06
3.15319e-05
1.24695e-06
3.27937e-05
1.1546e-06
3.40761e-05
1.05082e-06
3.53816e-05
9.36532e-07
3.67132e-05
8.12791e-07
3.80735e-05
6.80762e-07
3.94657e-05
5.417e-07
4.08926e-05
3.96929e-07
4.23573e-05
2.47822e-07
4.38626e-05
9.57782e-08
4.54111e-05
-5.77992e-08
4.70053e-05
-2.11523e-07
4.8647e-05
-3.64043e-07
5.03379e-05
-5.14065e-07
5.2079e-05
-6.6037e-07
5.38707e-05
-8.01825e-07
5.57124e-05
-9.37402e-07
5.76032e-05
-1.06619e-06
5.95408e-05
-1.18738e-06
6.15223e-05
-1.30033e-06
6.35436e-05
-1.40451e-06
6.55995e-05
-1.49952e-06
6.76839e-05
-1.58515e-06
6.97893e-05
-1.66128e-06
7.19072e-05
-1.728e-06
7.4028e-05
-1.78551e-06
7.61409e-05
-1.83418e-06
7.82343e-05
-1.87456e-06
8.02953e-05
-1.90732e-06
8.23105e-05
-1.93332e-06
8.42657e-05
-1.95356e-06
8.61463e-05
-1.9692e-06
8.79373e-05
-1.98155e-06
8.96237e-05
-1.99202e-06
9.11908e-05
-2.00217e-06
9.26245e-05
-2.01362e-06
9.39113e-05
-2.02809e-06
9.50391e-05
-2.0473e-06
9.59971e-05
-2.07297e-06
9.67766e-05
-2.10681e-06
9.73704e-05
-2.15039e-06
9.77739e-05
-2.2052e-06
9.79847e-05
-2.27251e-06
9.80029e-05
-2.35343e-06
9.78307e-05
-2.44879e-06
9.74727e-05
-2.55917e-06
9.69353e-05
-2.68489e-06
9.62265e-05
-2.82596e-06
9.53552e-05
-2.98215e-06
9.4331e-05
-3.15298e-06
9.31631e-05
-3.33781e-06
9.18602e-05
-3.53582e-06
9.04294e-05
-3.74613e-06
8.88757e-05
-3.96786e-06
8.72018e-05
-4.20018e-06
8.54071e-05
-4.44242e-06
8.3488e-05
-4.69408e-06
8.14373e-05
-4.95493e-06
7.92446e-05
-5.22503e-06
7.68963e-05
-5.50477e-06
7.43761e-05
-5.79485e-06
7.16652e-05
-6.0963e-06
6.87434e-05
-6.41042e-06
6.55891e-05
-6.73879e-06
6.21807e-05
-7.08319e-06
5.84966e-05
-7.44552e-06
5.45158e-05
-7.82783e-06
5.02191e-05
-8.23218e-06
4.55886e-05
-8.66063e-06
4.06087e-05
3.52657e-05
-9.11518e-06
7.93906e-09
4.18156e-07
3.0806e-08
1.26184e-06
6.7825e-08
2.12621e-06
1.1814e-07
3.01116e-06
1.80815e-07
3.91645e-06
2.54837e-07
4.84177e-06
3.39116e-07
5.78673e-06
4.32494e-07
6.75085e-06
5.33747e-07
7.73359e-06
6.41592e-07
8.73431e-06
7.547e-07
9.75233e-06
8.71697e-07
1.07869e-05
9.91182e-07
1.18373e-05
1.11174e-06
1.29026e-05
1.23194e-06
1.3982e-05
1.35037e-06
1.50748e-05
1.46564e-06
1.61802e-05
1.57641e-06
1.72974e-05
1.68138e-06
1.84258e-05
1.77934e-06
1.95649e-05
1.86916e-06
2.07141e-05
1.94982e-06
2.18734e-05
2.0204e-06
2.30426e-05
2.08016e-06
2.42218e-05
2.12847e-06
2.54113e-05
2.16488e-06
2.66118e-05
2.18909e-06
2.78241e-05
2.20098e-06
2.90493e-05
2.20062e-06
3.02888e-05
2.18825e-06
3.15443e-05
2.16429e-06
3.28176e-05
2.12933e-06
3.4111e-05
2.08412e-06
3.54269e-05
2.02956e-06
3.67677e-05
1.96669e-06
3.81364e-05
1.89668e-06
3.95357e-05
1.82079e-06
4.09685e-05
1.74037e-06
4.24378e-05
1.65681e-06
4.39462e-05
1.57154e-06
4.54964e-05
1.48602e-06
4.70908e-05
1.40166e-06
4.87314e-05
1.31985e-06
5.04198e-05
1.24192e-06
5.2157e-05
1.16912e-06
5.39435e-05
1.10259e-06
5.5779e-05
1.04335e-06
5.76624e-05
9.92312e-07
5.95919e-05
9.50208e-07
6.15644e-05
9.17637e-07
6.35762e-05
8.95027e-07
6.56222e-05
8.82637e-07
6.76963e-05
8.80551e-07
6.97914e-05
8.88671e-07
7.18991e-05
9.06719e-07
7.401e-05
9.34235e-07
7.61134e-05
9.70574e-07
7.81979e-05
1.01491e-06
8.02509e-05
1.06624e-06
8.22592e-05
1.12339e-06
8.42086e-05
1.18502e-06
8.60847e-05
1.24962e-06
8.78727e-05
1.31558e-06
8.95577e-05
1.38113e-06
9.11253e-05
1.44446e-06
9.25611e-05
1.50364e-06
9.38521e-05
1.55677e-06
9.49859e-05
1.60193e-06
9.5952e-05
1.63729e-06
9.67412e-05
1.66111e-06
9.73466e-05
1.6718e-06
9.77632e-05
1.66799e-06
9.79885e-05
1.64855e-06
9.80223e-05
1.61264e-06
9.78666e-05
1.55972e-06
9.75256e-05
1.48958e-06
9.70054e-05
1.40232e-06
9.63137e-05
1.2984e-06
9.54591e-05
1.17852e-06
9.44508e-05
1.04365e-06
9.3298e-05
8.94914e-07
9.20089e-05
7.33577e-07
9.05907e-05
5.60908e-07
8.90484e-05
3.78123e-07
8.73846e-05
1.86289e-07
8.5599e-05
-1.37544e-08
8.3688e-05
-2.21462e-07
8.1645e-05
-4.36664e-07
7.94598e-05
-6.5958e-07
7.71192e-05
-8.9085e-07
7.46073e-05
-1.13153e-06
7.19059e-05
-1.38309e-06
6.89949e-05
-1.64733e-06
6.58534e-05
-1.92638e-06
6.24598e-05
-2.22261e-06
5.87928e-05
-2.53854e-06
5.48318e-05
-2.87681e-06
5.05574e-05
-3.24009e-06
4.59519e-05
-3.63104e-06
4.09996e-05
3.56869e-05
-4.05223e-06
8.62796e-09
4.09528e-07
3.36005e-08
1.23686e-06
7.42048e-08
2.08561e-06
1.29649e-07
2.95572e-06
1.99061e-07
3.84703e-06
2.81491e-07
4.75934e-06
3.75912e-07
5.69231e-06
4.81223e-07
6.64554e-06
5.96257e-07
7.61856e-06
7.19783e-07
8.61079e-06
8.50513e-07
9.6216e-06
9.87115e-07
1.06503e-05
1.12822e-06
1.16962e-05
1.27242e-06
1.27584e-05
1.41832e-06
1.38361e-05
1.56451e-06
1.49287e-05
1.70958e-06
1.60351e-05
1.85218e-06
1.71548e-05
1.99099e-06
1.8287e-05
2.12475e-06
1.94311e-05
2.2523e-06
2.05866e-05
2.37255e-06
2.17532e-05
2.48456e-06
2.29306e-05
2.58748e-06
2.41188e-05
2.68062e-06
2.53182e-05
2.76346e-06
2.6529e-05
2.83563e-06
2.77519e-05
2.89694e-06
2.8988e-05
2.94737e-06
3.02384e-05
2.9871e-06
3.15046e-05
3.01648e-06
3.27882e-05
3.03605e-06
3.40915e-05
3.0465e-06
3.54164e-05
3.04872e-06
3.67655e-05
3.0437e-06
3.81414e-05
3.03261e-06
3.95468e-05
3.01669e-06
4.09844e-05
2.9973e-06
4.24571e-05
2.97585e-06
4.39676e-05
2.9538e-06
4.55184e-05
2.93261e-06
4.7112e-05
2.91376e-06
4.87502e-05
2.89866e-06
5.04349e-05
2.88867e-06
5.2167e-05
2.88507e-06
5.39471e-05
2.88901e-06
5.5775e-05
2.90154e-06
5.76499e-05
2.92353e-06
5.95699e-05
2.95571e-06
6.15322e-05
2.99862e-06
6.35333e-05
3.05261e-06
6.55682e-05
3.11784e-06
6.76311e-05
3.19427e-06
6.9715e-05
3.28164e-06
7.18117e-05
3.37949e-06
7.39121e-05
3.48715e-06
7.60058e-05
3.60373e-06
7.80813e-05
3.72816e-06
8.01265e-05
3.85916e-06
8.21282e-05
3.99525e-06
8.40725e-05
4.13479e-06
8.59451e-05
4.27598e-06
8.77315e-05
4.4169e-06
8.94168e-05
4.55551e-06
9.09867e-05
4.68969e-06
9.2427e-05
4.8173e-06
9.37245e-05
4.93621e-06
9.4867e-05
5.04434e-06
9.58438e-05
5.13974e-06
9.66458e-05
5.2206e-06
9.72657e-05
5.28535e-06
9.76984e-05
5.33266e-06
9.79412e-05
5.36154e-06
9.79934e-05
5.37133e-06
9.78568e-05
5.36174e-06
9.75352e-05
5.33288e-06
9.70343e-05
5.28523e-06
9.63614e-05
5.2196e-06
9.55247e-05
5.13713e-06
9.45333e-05
5.03921e-06
9.33959e-05
4.92741e-06
9.21207e-05
4.80336e-06
9.07148e-05
4.6687e-06
8.91831e-05
4.52494e-06
8.75283e-05
4.37339e-06
8.57505e-05
4.21503e-06
8.38464e-05
4.05048e-06
8.18096e-05
3.87987e-06
7.96304e-05
3.70286e-06
7.72962e-05
3.5186e-06
7.47916e-05
3.32572e-06
7.20987e-05
3.1224e-06
6.91982e-05
2.90636e-06
6.60694e-05
2.67499e-06
6.26912e-05
2.42539e-06
5.90424e-05
2.15447e-06
5.51027e-05
1.85902e-06
5.08528e-05
1.53581e-06
4.62751e-05
1.18162e-06
4.13538e-05
3.60752e-05
7.93339e-07
9.20733e-09
4.00321e-07
3.59637e-08
1.21011e-06
7.96229e-08
2.04195e-06
1.39461e-07
2.89588e-06
2.14676e-07
3.77182e-06
3.04387e-07
4.66963e-06
4.07635e-07
5.58906e-06
5.23388e-07
6.52979e-06
6.5054e-07
7.4914e-06
7.87922e-07
8.47341e-06
9.34301e-07
9.47522e-06
1.08839e-06
1.04962e-05
1.24887e-06
1.15357e-05
1.41437e-06
1.25929e-05
1.58351e-06
1.3667e-05
1.75489e-06
1.47573e-05
1.92713e-06
1.58629e-05
2.09886e-06
1.69831e-05
2.26875e-06
1.81171e-05
2.43553e-06
1.92643e-05
2.59798e-06
2.04242e-05
2.75498e-06
2.15962e-05
2.90553e-06
2.278e-05
3.04874e-06
2.39756e-05
3.18384e-06
2.51831e-05
3.31024e-06
2.64026e-05
3.42749e-06
2.76347e-05
3.53533e-06
2.88802e-05
3.63367e-06
3.014e-05
3.7226e-06
3.14156e-05
3.80242e-06
3.27084e-05
3.87358e-06
3.40203e-05
3.93674e-06
3.53532e-05
3.99271e-06
3.67096e-05
4.04248e-06
3.80917e-05
4.08716e-06
3.95021e-05
4.12799e-06
4.09436e-05
4.16631e-06
4.24188e-05
4.20354e-06
4.39304e-05
4.24116e-06
4.54808e-05
4.28065e-06
4.70725e-05
4.3235e-06
4.87074e-05
4.37117e-06
5.03872e-05
4.42505e-06
5.21131e-05
4.48644e-06
5.38857e-05
4.55653e-06
5.57049e-05
4.63636e-06
5.757e-05
4.72682e-06
5.94794e-05
4.82861e-06
6.14304e-05
4.94226e-06
6.34196e-05
5.06806e-06
6.54424e-05
5.20608e-06
6.7493e-05
5.3562e-06
6.95649e-05
5.51801e-06
7.16499e-05
5.69092e-06
7.37392e-05
5.87407e-06
7.58226e-05
6.06638e-06
7.7889e-05
6.26654e-06
7.99263e-05
6.47304e-06
8.19217e-05
6.68413e-06
8.38614e-05
6.89792e-06
8.57313e-05
7.11234e-06
8.75171e-05
7.32518e-06
8.9204e-05
7.53413e-06
9.07777e-05
7.73685e-06
9.22242e-05
7.93095e-06
9.35304e-05
8.11411e-06
9.46839e-05
8.28408e-06
9.56739e-05
8.43877e-06
9.64911e-05
8.5763e-06
9.71282e-05
8.69508e-06
9.75797e-05
8.79381e-06
9.78425e-05
8.87157e-06
9.79156e-05
8.92785e-06
9.78005e-05
8.96258e-06
9.75005e-05
8.97608e-06
9.70208e-05
8.96915e-06
9.63683e-05
8.94291e-06
9.5551e-05
8.89888e-06
9.45773e-05
8.8388e-06
9.3456e-05
8.76459e-06
9.21949e-05
8.67825e-06
9.08011e-05
8.58174e-06
8.92796e-05
8.47685e-06
8.76332e-05
8.36509e-06
8.58623e-05
8.24763e-06
8.39639e-05
8.12514e-06
8.19321e-05
7.99776e-06
7.97578e-05
7.86507e-06
7.74289e-05
7.72606e-06
7.49306e-05
7.5791e-06
7.22457e-05
7.42204e-06
6.93553e-05
7.25225e-06
6.62392e-05
7.06667e-06
6.28767e-05
6.86191e-06
5.92471e-05
6.63439e-06
5.53302e-05
6.38037e-06
5.11068e-05
6.09607e-06
4.65594e-05
5.77776e-06
4.16721e-05
3.64312e-05
5.42182e-06
9.68257e-09
3.90638e-07
3.79155e-08
1.18187e-06
8.41215e-08
1.99575e-06
1.47648e-07
2.83235e-06
2.27766e-07
3.6917e-06
3.23669e-07
4.57372e-06
4.34472e-07
5.47826e-06
5.59215e-07
6.40505e-06
6.96865e-07
7.35375e-06
8.46318e-07
8.32395e-06
1.00641e-06
9.31513e-06
1.17591e-06
1.03267e-05
1.35354e-06
1.1358e-05
1.53799e-06
1.24084e-05
1.72792e-06
1.34771e-05
1.92195e-06
1.45632e-05
2.11871e-06
1.56661e-05
2.31686e-06
1.67849e-05
2.51505e-06
1.79189e-05
2.712e-06
1.90674e-05
2.90647e-06
2.02297e-05
3.09732e-06
2.14053e-05
3.2835e-06
2.25939e-05
3.46404e-06
2.37951e-05
3.63815e-06
2.50089e-05
3.80515e-06
2.62356e-05
3.96453e-06
2.74753e-05
4.11594e-06
2.87288e-05
4.25922e-06
2.99968e-05
4.39439e-06
3.12804e-05
4.52166e-06
3.25812e-05
4.64142e-06
3.39005e-05
4.75427e-06
3.52404e-05
4.86095e-06
3.66029e-05
4.9624e-06
3.79902e-05
5.05969e-06
3.94048e-05
5.15404e-06
4.08493e-05
5.24677e-06
4.23261e-05
5.33929e-06
4.38379e-05
5.43307e-06
4.5387e-05
5.52963e-06
4.69759e-05
5.63046e-06
4.86065e-05
5.73706e-06
5.02806e-05
5.85083e-06
5.19993e-05
5.97311e-06
5.37634e-05
6.10512e-06
5.55729e-05
6.24793e-06
5.74272e-05
6.40243e-06
5.93249e-05
6.56934e-06
6.12635e-05
6.74915e-06
6.32398e-05
6.94212e-06
6.52494e-05
7.1483e-06
6.72869e-05
7.36746e-06
6.93457e-05
7.59912e-06
7.14183e-05
7.84254e-06
7.34958e-05
8.09674e-06
7.55684e-05
8.36046e-06
7.76253e-05
8.63221e-06
7.96546e-05
8.91025e-06
8.16436e-05
9.19265e-06
8.3579e-05
9.47725e-06
8.54467e-05
9.76174e-06
8.72326e-05
1.00437e-05
8.8922e-05
1.03205e-05
9.05009e-05
1.05897e-05
9.19551e-05
1.08485e-05
9.32715e-05
1.10946e-05
9.44378e-05
1.13254e-05
9.5443e-05
1.15389e-05
9.62777e-05
1.17328e-05
9.69342e-05
1.19058e-05
9.74068e-05
1.20563e-05
9.76919e-05
1.21836e-05
9.77883e-05
1.22873e-05
9.76969e-05
1.23673e-05
9.74204e-05
1.24243e-05
9.69638e-05
1.24592e-05
9.63334e-05
1.24734e-05
9.55367e-05
1.24688e-05
9.4582e-05
1.24473e-05
9.34774e-05
1.24113e-05
9.2231e-05
1.23629e-05
9.08494e-05
1.23046e-05
8.93379e-05
1.22382e-05
8.76996e-05
1.21656e-05
8.59349e-05
1.20881e-05
8.40414e-05
1.20064e-05
8.20138e-05
1.19207e-05
7.98435e-05
1.18305e-05
7.75191e-05
1.17347e-05
7.50264e-05
1.16316e-05
7.23488e-05
1.15187e-05
6.94682e-05
1.13929e-05
6.63649e-05
1.1251e-05
6.30186e-05
1.10892e-05
5.9409e-05
1.09032e-05
5.55161e-05
1.0689e-05
5.1321e-05
1.04423e-05
4.68061e-05
1.01589e-05
4.19556e-05
3.67555e-05
9.83454e-06
1.00597e-08
3.80578e-07
3.94785e-08
1.15246e-06
8.77494e-08
1.94747e-06
1.54293e-07
2.76581e-06
2.38457e-07
3.60754e-06
3.39509e-07
4.47267e-06
4.56645e-07
5.36112e-06
5.88981e-07
6.27271e-06
7.3556e-07
7.20717e-06
8.95355e-07
8.16416e-06
1.06727e-06
9.14322e-06
1.25014e-06
1.01438e-05
1.44276e-06
1.11654e-05
1.64386e-06
1.22073e-05
1.85215e-06
1.32688e-05
2.06629e-06
1.43491e-05
2.28496e-06
1.54475e-05
2.50681e-06
1.65631e-05
2.73052e-06
1.76952e-05
2.9548e-06
1.88431e-05
3.17841e-06
2.00061e-05
3.40017e-06
2.11835e-05
3.61899e-06
2.2375e-05
3.83389e-06
2.35802e-05
4.044e-06
2.47988e-05
4.24859e-06
2.6031e-05
4.44707e-06
2.72768e-05
4.63904e-06
2.85368e-05
4.82425e-06
2.98116e-05
5.00263e-06
3.11021e-05
5.17433e-06
3.24095e-05
5.33967e-06
3.37352e-05
5.49914e-06
3.50809e-05
5.65346e-06
3.64486e-05
5.80348e-06
3.78402e-05
5.95023e-06
3.92581e-05
6.09488e-06
4.07046e-05
6.23874e-06
4.21822e-05
6.38319e-06
4.36934e-05
6.5297e-06
4.52405e-05
6.67978e-06
4.68258e-05
6.83496e-06
4.84514e-05
6.99672e-06
5.01188e-05
7.16653e-06