/*--------------------------------*- C++ -*----------------------------------*\
| =========                 |                                                 |
| \\      /  F ield         | OpenFOAM: The Open Source CFD Toolbox           |
|  \\    /   O peration     | Version:  2406                                  |
|   \\  /    A nd           | Website:  www.openfoam.com                      |
|    \\/     M anipulation  |                                                 |
\*---------------------------------------------------------------------------*/
FoamFile
{
    version     2.0;
    format      ascii;
    arch        "LSB;label=32;scalar=64";
    class       volVectorField;
    location    "15";
    object      U;
}
// * * * * * * * * * * * * * * * * * * * * * * * * * * * * * * * * * * * * * //

dimensions      [0 1 -1 0 0 0 0];

internalField   nonuniform List<vector> 
40000
(
(1.81035e-07 0.00451324 0)
(-7.44044e-07 0.013321 0)
(-5.19637e-06 0.0219768 0)
(-1.51548e-05 0.0304744 0)
(-3.27802e-05 0.0388073 0)
(-6.03705e-05 0.0469695 0)
(-0.000100309 0.0549547 0)
(-0.000155046 0.0627571 0)
(-0.00022708 0.0703714 0)
(-0.000318938 0.0777926 0)
(-0.000433152 0.0850162 0)
(-0.00057224 0.0920387 0)
(-0.000738675 0.0988572 0)
(-0.000934866 0.10547 0)
(-0.00116313 0.111876 0)
(-0.00142567 0.118075 0)
(-0.00172457 0.12407 0)
(-0.00206171 0.129863 0)
(-0.00243885 0.135458 0)
(-0.00285751 0.140861 0)
(-0.00331901 0.14608 0)
(-0.00382445 0.151122 0)
(-0.00437469 0.155997 0)
(-0.00497036 0.160718 0)
(-0.00561182 0.165297 0)
(-0.00629921 0.169747 0)
(-0.00703241 0.174085 0)
(-0.00781108 0.178324 0)
(-0.00863465 0.182484 0)
(-0.00950234 0.18658 0)
(-0.0104132 0.190629 0)
(-0.011366 0.19465 0)
(-0.0123595 0.19866 0)
(-0.0133922 0.202674 0)
(-0.0144626 0.20671 0)
(-0.015569 0.210782 0)
(-0.0167097 0.214902 0)
(-0.0178827 0.219082 0)
(-0.0190864 0.223333 0)
(-0.0203187 0.22766 0)
(-0.0215777 0.232069 0)
(-0.0228615 0.236561 0)
(-0.024168 0.241135 0)
(-0.0254951 0.245787 0)
(-0.0268408 0.250509 0)
(-0.0282028 0.255291 0)
(-0.0295788 0.260117 0)
(-0.0309666 0.26497 0)
(-0.0323634 0.269829 0)
(-0.0337668 0.27467 0)
(-0.0351737 0.279463 0)
(-0.0365813 0.284179 0)
(-0.0379864 0.288783 0)
(-0.0393855 0.293239 0)
(-0.0407751 0.297507 0)
(-0.0421515 0.301547 0)
(-0.0435109 0.305316 0)
(-0.0448492 0.308772 0)
(-0.0461627 0.311869 0)
(-0.0474473 0.314565 0)
(-0.0486991 0.316816 0)
(-0.0499148 0.318583 0)
(-0.0510908 0.319827 0)
(-0.0522243 0.320515 0)
(-0.053313 0.320615 0)
(-0.054355 0.320105 0)
(-0.0553494 0.318966 0)
(-0.0562961 0.317186 0)
(-0.0571956 0.314764 0)
(-0.0580499 0.311703 0)
(-0.0588615 0.308017 0)
(-0.0596343 0.303726 0)
(-0.0603731 0.29886 0)
(-0.0610834 0.293455 0)
(-0.0617718 0.287552 0)
(-0.0624455 0.281198 0)
(-0.0631122 0.274444 0)
(-0.0637799 0.26734 0)
(-0.0644566 0.259937 0)
(-0.0651503 0.252284 0)
(-0.0658684 0.244424 0)
(-0.0666177 0.236397 0)
(-0.0674042 0.228233 0)
(-0.0682328 0.219954 0)
(-0.0691072 0.211575 0)
(-0.0700299 0.203099 0)
(-0.0710019 0.194523 0)
(-0.072023 0.185832 0)
(-0.0730918 0.177008 0)
(-0.0742057 0.168024 0)
(-0.0753613 0.158852 0)
(-0.0765541 0.14946 0)
(-0.0777795 0.139815 0)
(-0.0790322 0.129888 0)
(-0.0803067 0.119652 0)
(-0.0815978 0.109081 0)
(-0.0829002 0.0981585 0)
(-0.0842091 0.0868707 0)
(-0.0855198 0.0752106 0)
(-0.0868282 0.0631769 0)
(1.11007e-06 0.00450706 0)
(5.37929e-06 0.0133122 0)
(1.27081e-05 0.021975 0)
(2.06735e-05 0.0304896 0)
(2.67942e-05 0.0388496 0)
(2.8704e-05 0.0470488 0)
(2.39669e-05 0.055081 0)
(1.00425e-05 0.0629401 0)
(-1.5681e-05 0.0706204 0)
(-5.58605e-05 0.0781165 0)
(-0.000113175 0.0854236 0)
(-0.0001903 0.0925376 0)
(-0.000289883 0.0994548 0)
(-0.000414521 0.106173 0)
(-0.00056673 0.11269 0)
(-0.000748921 0.119006 0)
(-0.000963374 0.125121 0)
(-0.00121221 0.131037 0)
(-0.00149739 0.136757 0)
(-0.00182063 0.142287 0)
(-0.00218349 0.147632 0)
(-0.00258723 0.152801 0)
(-0.00303289 0.157801 0)
(-0.00352126 0.162644 0)
(-0.00405284 0.167341 0)
(-0.00462787 0.171907 0)
(-0.00524631 0.176354 0)
(-0.00590786 0.180698 0)
(-0.00661197 0.184955 0)
(-0.00735784 0.189142 0)
(-0.00814443 0.193277 0)
(-0.0089705 0.197375 0)
(-0.00983461 0.201454 0)
(-0.0107352 0.205531 0)
(-0.0116704 0.209621 0)
(-0.0126385 0.21374 0)
(-0.0136374 0.217899 0)
(-0.0146652 0.222112 0)
(-0.0157196 0.226387 0)
(-0.0167985 0.230732 0)
(-0.0178999 0.235152 0)
(-0.0190214 0.239649 0)
(-0.0201608 0.244221 0)
(-0.021316 0.248865 0)
(-0.0224846 0.253574 0)
(-0.0236645 0.258336 0)
(-0.0248533 0.263137 0)
(-0.0260487 0.26796 0)
(-0.0272483 0.272783 0)
(-0.0284497 0.277581 0)
(-0.0296502 0.282328 0)
(-0.0308472 0.286991 0)
(-0.0320381 0.291536 0)
(-0.0332199 0.295928 0)
(-0.0343898 0.300128 0)
(-0.0355448 0.304093 0)
(-0.0366819 0.307783 0)
(-0.0377981 0.311154 0)
(-0.0388903 0.314162 0)
(-0.0399558 0.316765 0)
(-0.0409918 0.31892 0)
(-0.0419959 0.320587 0)
(-0.042966 0.321731 0)
(-0.0439002 0.322316 0)
(-0.0447974 0.322315 0)
(-0.0456568 0.321704 0)
(-0.0464785 0.320467 0)
(-0.0472632 0.318594 0)
(-0.0480122 0.316083 0)
(-0.0487279 0.31294 0)
(-0.0494133 0.309179 0)
(-0.0500722 0.304823 0)
(-0.0507092 0.299901 0)
(-0.0513296 0.29445 0)
(-0.0519392 0.288512 0)
(-0.0525442 0.282134 0)
(-0.0531511 0.275367 0)
(-0.0537666 0.26826 0)
(-0.0543971 0.260865 0)
(-0.055049 0.253228 0)
(-0.055728 0.245392 0)
(-0.0564393 0.237395 0)
(-0.0571872 0.229266 0)
(-0.0579751 0.221026 0)
(-0.0588056 0.212686 0)
(-0.0596802 0.204251 0)
(-0.0605991 0.195713 0)
(-0.0615619 0.187058 0)
(-0.0625672 0.178266 0)
(-0.0636127 0.16931 0)
(-0.0646956 0.16016 0)
(-0.0658124 0.150784 0)
(-0.0669597 0.141151 0)
(-0.0681335 0.131229 0)
(-0.06933 0.120992 0)
(-0.0705455 0.110417 0)
(-0.0717765 0.0994844 0)
(-0.0730196 0.0881829 0)
(-0.0742721 0.0765055 0)
(-0.0755311 0.0644516 0)
(2.02918e-06 0.00448645 0)
(1.13132e-05 0.013261 0)
(2.99773e-05 0.021904 0)
(5.52282e-05 0.0304095 0)
(8.43067e-05 0.0387714 0)
(0.000114803 0.0469833 0)
(0.000144257 0.0550391 0)
(0.000170066 0.0629324 0)
(0.000189535 0.0706574 0)
(0.000199905 0.0782083 0)
(0.000198383 0.0855798 0)
(0.00018216 0.0927672 0)
(0.000148439 0.0997664 0)
(9.44612e-05 0.106574 0)
(1.75336e-05 0.113188 0)
(-8.49425e-05 0.119606 0)
(-0.000215445 0.125829 0)
(-0.000376301 0.131858 0)
(-0.000569664 0.137694 0)
(-0.000797485 0.143342 0)
(-0.00106149 0.148806 0)
(-0.00136317 0.154094 0)
(-0.00170373 0.159213 0)
(-0.00208413 0.164172 0)
(-0.00250502 0.168984 0)
(-0.00296677 0.17366 0)
(-0.00346944 0.178213 0)
(-0.00401281 0.182658 0)
(-0.00459636 0.187011 0)
(-0.0052193 0.191287 0)
(-0.00588057 0.195503 0)
(-0.00657887 0.199676 0)
(-0.00731267 0.203823 0)
(-0.00808025 0.207959 0)
(-0.00887971 0.212101 0)
(-0.00970899 0.216262 0)
(-0.0105659 0.220458 0)
(-0.0114483 0.224699 0)
(-0.0123537 0.228995 0)
(-0.0132798 0.233353 0)
(-0.0142242 0.237779 0)
(-0.0151846 0.242276 0)
(-0.0161584 0.246842 0)
(-0.0171434 0.251473 0)
(-0.0181372 0.256163 0)
(-0.0191374 0.260901 0)
(-0.0201419 0.265673 0)
(-0.0211482 0.270462 0)
(-0.0221541 0.275246 0)
(-0.0231574 0.280001 0)
(-0.0241557 0.284699 0)
(-0.0251469 0.28931 0)
(-0.0261287 0.293799 0)
(-0.0270987 0.29813 0)
(-0.0280546 0.302265 0)
(-0.0289944 0.306162 0)
(-0.0299157 0.30978 0)
(-0.0308164 0.313076 0)
(-0.0316944 0.316007 0)
(-0.0325481 0.31853 0)
(-0.0333756 0.320603 0)
(-0.0341756 0.322189 0)
(-0.0349472 0.323249 0)
(-0.0356896 0.323753 0)
(-0.0364026 0.323671 0)
(-0.0370865 0.322982 0)
(-0.0377422 0.321671 0)
(-0.0383712 0.319727 0)
(-0.0389754 0.317152 0)
(-0.0395575 0.31395 0)
(-0.0401209 0.310138 0)
(-0.0406692 0.305739 0)
(-0.0412069 0.300781 0)
(-0.0417386 0.295304 0)
(-0.0422695 0.289348 0)
(-0.0428047 0.282962 0)
(-0.0433497 0.276194 0)
(-0.0439096 0.269095 0)
(-0.0444895 0.261714 0)
(-0.0450941 0.254098 0)
(-0.0457274 0.246288 0)
(-0.0463932 0.238322 0)
(-0.0470943 0.230226 0)
(-0.0478329 0.22202 0)
(-0.0486103 0.213716 0)
(-0.0494272 0.205315 0)
(-0.0502836 0.19681 0)
(-0.0511786 0.188186 0)
(-0.0521109 0.179421 0)
(-0.0530789 0.170488 0)
(-0.0540803 0.161358 0)
(-0.055113 0.151997 0)
(-0.0561745 0.142375 0)
(-0.0572624 0.13246 0)
(-0.0583745 0.122227 0)
(-0.0595086 0.111651 0)
(-0.0606629 0.100716 0)
(-0.0618357 0.0894088 0)
(-0.0630257 0.0777239 0)
(-0.0642316 0.0656607 0)
(2.90035e-06 0.00445255 0)
(1.69565e-05 0.0131709 0)
(4.64338e-05 0.0217688 0)
(8.82098e-05 0.0302408 0)
(0.000139287 0.0385808 0)
(0.000197241 0.0467824 0)
(0.000259614 0.0548396 0)
(0.000323774 0.0627458 0)
(0.000386969 0.0704949 0)
(0.000446371 0.078081 0)
(0.0004991 0.0854982 0)
(0.000542246 0.0927413 0)
(0.000572888 0.0998057 0)
(0.000588133 0.106687 0)
(0.000585134 0.113383 0)
(0.000561126 0.119891 0)
(0.000513452 0.12621 0)
(0.000439597 0.132339 0)
(0.000337212 0.138281 0)
(0.000204146 0.144037 0)
(3.84729e-05 0.149612 0)
(-0.000161488 0.155012 0)
(-0.000397147 0.160243 0)
(-0.000669629 0.165315 0)
(-0.000979753 0.170236 0)
(-0.00132803 0.175018 0)
(-0.00171465 0.179674 0)
(-0.00213948 0.184217 0)
(-0.00260207 0.188662 0)
(-0.00310168 0.193024 0)
(-0.00363724 0.19732 0)
(-0.00420744 0.201565 0)
(-0.00481068 0.205776 0)
(-0.00544515 0.209969 0)
(-0.00610883 0.21416 0)
(-0.00679952 0.218363 0)
(-0.00751489 0.222591 0)
(-0.00825249 0.226857 0)
(-0.00900979 0.23117 0)
(-0.00978423 0.235538 0)
(-0.0105732 0.239967 0)
(-0.0113741 0.244459 0)
(-0.0121845 0.249015 0)
(-0.0130017 0.25363 0)
(-0.0138233 0.258298 0)
(-0.014647 0.263008 0)
(-0.0154704 0.267748 0)
(-0.0162913 0.2725 0)
(-0.0171076 0.277243 0)
(-0.0179172 0.281953 0)
(-0.0187181 0.286603 0)
(-0.0195084 0.291162 0)
(-0.0202863 0.295597 0)
(-0.02105 0.29987 0)
(-0.0217978 0.303945 0)
(-0.0225283 0.30778 0)
(-0.0232399 0.311335 0)
(-0.0239314 0.314565 0)
(-0.0246017 0.31743 0)
(-0.02525 0.319886 0)
(-0.0258755 0.321893 0)
(-0.0264779 0.323412 0)
(-0.0270573 0.324408 0)
(-0.0276139 0.324848 0)
(-0.0281485 0.324706 0)
(-0.0286624 0.32396 0)
(-0.0291571 0.322596 0)
(-0.0296348 0.320604 0)
(-0.030098 0.317986 0)
(-0.0305498 0.314748 0)
(-0.0309934 0.310905 0)
(-0.0314327 0.306482 0)
(-0.0318716 0.301509 0)
(-0.0323144 0.296021 0)
(-0.0327653 0.290063 0)
(-0.0332285 0.283681 0)
(-0.0337084 0.276923 0)
(-0.0342086 0.26984 0)
(-0.0347329 0.262479 0)
(-0.0352844 0.254888 0)
(-0.0358658 0.247106 0)
(-0.0364792 0.239169 0)
(-0.0371262 0.231104 0)
(-0.0378077 0.22293 0)
(-0.0385242 0.214657 0)
(-0.0392756 0.206285 0)
(-0.0400615 0.197807 0)
(-0.0408809 0.189208 0)
(-0.041733 0.180466 0)
(-0.0426163 0.171553 0)
(-0.0435297 0.16244 0)
(-0.044472 0.153094 0)
(-0.0454419 0.143483 0)
(-0.0464386 0.133578 0)
(-0.0474614 0.123352 0)
(-0.0485097 0.112782 0)
(-0.0495833 0.101851 0)
(-0.0506822 0.0905472 0)
(-0.0518064 0.0788645 0)
(-0.0529563 0.0668029 0)
(3.71723e-06 0.00440651 0)
(2.2272e-05 0.0130449 0)
(6.19705e-05 0.0215747 0)
(0.000119403 0.0299905 0)
(0.000191375 0.0382864 0)
(0.000275474 0.0464563 0)
(0.000369272 0.0544938 0)
(0.000470134 0.0623926 0)
(0.000575284 0.0701463 0)
(0.000681857 0.0777485 0)
(0.000786915 0.0851933 0)
(0.000887474 0.092475 0)
(0.000980525 0.0995883 0)
(0.00106306 0.106529 0)
(0.00113211 0.113292 0)
(0.00118477 0.119875 0)
(0.00121822 0.126277 0)
(0.00122978 0.132496 0)
(0.00121691 0.138532 0)
(0.00117729 0.144388 0)
(0.00110878 0.150066 0)
(0.00100951 0.15557 0)
(0.000877886 0.160907 0)
(0.000712593 0.166084 0)
(0.000512637 0.171109 0)
(0.000277349 0.175993 0)
(6.39804e-06 0.180748 0)
(-0.000300206 0.185385 0)
(-0.000642111 0.18992 0)
(-0.00101863 0.194366 0)
(-0.00142874 0.198739 0)
(-0.00187113 0.203055 0)
(-0.00234418 0.207329 0)
(-0.00284602 0.211577 0)
(-0.00337453 0.215814 0)
(-0.00392742 0.220056 0)
(-0.00450219 0.224315 0)
(-0.00509625 0.228603 0)
(-0.0057069 0.23293 0)
(-0.00633137 0.237306 0)
(-0.00696691 0.241734 0)
(-0.00761075 0.246219 0)
(-0.00826016 0.250761 0)
(-0.0089125 0.255356 0)
(-0.00956521 0.259999 0)
(-0.0102159 0.264679 0)
(-0.0108621 0.269384 0)
(-0.0115018 0.274097 0)
(-0.0121329 0.278798 0)
(-0.0127535 0.283463 0)
(-0.0133618 0.288064 0)
(-0.0139564 0.292573 0)
(-0.0145358 0.296955 0)
(-0.0150986 0.301175 0)
(-0.015644 0.305194 0)
(-0.0161709 0.308974 0)
(-0.0166787 0.312472 0)
(-0.017167 0.315646 0)
(-0.0176354 0.318455 0)
(-0.018084 0.320857 0)
(-0.0185131 0.322811 0)
(-0.0189234 0.324279 0)
(-0.0193157 0.325226 0)
(-0.0196915 0.325621 0)
(-0.0200522 0.325437 0)
(-0.0204 0.324654 0)
(-0.0207373 0.323256 0)
(-0.0210666 0.321237 0)
(-0.0213911 0.318596 0)
(-0.0217139 0.315341 0)
(-0.0220386 0.311488 0)
(-0.0223689 0.307059 0)
(-0.0227082 0.302086 0)
(-0.0230604 0.296605 0)
(-0.0234289 0.290657 0)
(-0.023817 0.284291 0)
(-0.0242277 0.277552 0)
(-0.0246638 0.270492 0)
(-0.0251274 0.263157 0)
(-0.0256202 0.255592 0)
(-0.0261436 0.247839 0)
(-0.0266983 0.239931 0)
(-0.0272846 0.231895 0)
(-0.0279025 0.223748 0)
(-0.0285515 0.215501 0)
(-0.029231 0.207154 0)
(-0.0299402 0.198699 0)
(-0.0306782 0.190121 0)
(-0.0314443 0.181398 0)
(-0.0322377 0.172502 0)
(-0.0330582 0.163404 0)
(-0.0339055 0.154072 0)
(-0.0347797 0.144474 0)
(-0.0356814 0.134582 0)
(-0.0366114 0.124367 0)
(-0.0375707 0.113809 0)
(-0.0385606 0.10289 0)
(-0.0395827 0.0915975 0)
(-0.0406386 0.0799269 0)
(-0.04173 0.0678777 0)
(4.47599e-06 0.00434952 0)
(2.72318e-05 0.0128866 0)
(7.65031e-05 0.0213271 0)
(0.000148637 0.0296659 0)
(0.000240279 0.0378973 0)
(0.000349057 0.0460153 0)
(0.000472598 0.0540137 0)
(0.000608293 0.0618859 0)
(0.000753371 0.0696255 0)
(0.000904957 0.077226 0)
(0.00106009 0.084681 0)
(0.00121574 0.0919844 0)
(0.00136884 0.0991306 0)
(0.00151631 0.106114 0)
(0.00165506 0.112931 0)
(0.00178209 0.119577 0)
(0.00189444 0.126049 0)
(0.00198927 0.132346 0)
(0.00206389 0.138466 0)
(0.00211579 0.144411 0)
(0.00214267 0.150182 0)
(0.00214246 0.155783 0)
(0.00211337 0.161218 0)
(0.0020539 0.166494 0)
(0.00196288 0.171618 0)
(0.00183946 0.1766 0)
(0.00168316 0.181449 0)
(0.00149385 0.186178 0)
(0.00127176 0.190799 0)
(0.00101749 0.195327 0)
(0.000731988 0.199775 0)
(0.000416538 0.204159 0)
(7.27485e-05 0.208494 0)
(-0.000297478 0.212795 0)
(-0.000691977 0.217078 0)
(-0.00110835 0.221357 0)
(-0.00154402 0.225644 0)
(-0.00199624 0.229953 0)
(-0.00246216 0.234293 0)
(-0.00293887 0.238673 0)
(-0.00342343 0.243099 0)
(-0.00391291 0.247574 0)
(-0.00440445 0.2521 0)
(-0.00489525 0.256673 0)
(-0.00538267 0.261288 0)
(-0.00586419 0.265936 0)
(-0.00633747 0.270604 0)
(-0.00680035 0.275277 0)
(-0.00725091 0.279934 0)
(-0.00768739 0.284553 0)
(-0.00810831 0.289107 0)
(-0.0085124 0.293566 0)
(-0.00889862 0.297898 0)
(-0.00926619 0.302067 0)
(-0.0096146 0.306037 0)
(-0.00994356 0.309766 0)
(-0.0102531 0.313215 0)
(-0.0105435 0.316343 0)
(-0.0108153 0.319106 0)
(-0.0110694 0.321464 0)
(-0.011307 0.323378 0)
(-0.0115297 0.324809 0)
(-0.0117393 0.325723 0)
(-0.011938 0.326089 0)
(-0.0121282 0.325881 0)
(-0.0123127 0.325078 0)
(-0.0124946 0.323665 0)
(-0.0126772 0.321637 0)
(-0.0128638 0.318992 0)
(-0.013058 0.315738 0)
(-0.0132633 0.31189 0)
(-0.0134831 0.307473 0)
(-0.013721 0.302515 0)
(-0.0139799 0.297054 0)
(-0.0142627 0.29113 0)
(-0.0145717 0.284788 0)
(-0.014909 0.278078 0)
(-0.015276 0.271047 0)
(-0.0156737 0.263742 0)
(-0.0161024 0.256207 0)
(-0.0165621 0.248483 0)
(-0.0170524 0.240603 0)
(-0.0175725 0.232593 0)
(-0.0181212 0.224471 0)
(-0.0186975 0.216246 0)
(-0.0193 0.207919 0)
(-0.0199277 0.199483 0)
(-0.0205799 0.190922 0)
(-0.0212559 0.182214 0)
(-0.0219558 0.173333 0)
(-0.0226799 0.164249 0)
(-0.0234292 0.154931 0)
(-0.0242049 0.145348 0)
(-0.0250091 0.135471 0)
(-0.0258439 0.125273 0)
(-0.0267119 0.114732 0)
(-0.0276161 0.103832 0)
(-0.0285594 0.09256 0)
(-0.0295449 0.0809111 0)
(-0.0305758 0.0688849 0)
(5.17326e-06 0.00428277 0)
(3.18147e-05 0.0126993 0)
(8.99692e-05 0.0210315 0)
(0.000175782 0.0292744 0)
(0.000285778 0.0374227 0)
(0.000417649 0.0454704 0)
(0.000569101 0.0534113 0)
(0.000737577 0.0612391 0)
(0.000920342 0.0689471 0)
(0.00111454 0.0765287 0)
(0.00131722 0.0839773 0)
(0.00152533 0.0912865 0)
(0.00173577 0.09845 0)
(0.00194542 0.105462 0)
(0.00215113 0.112318 0)
(0.00234978 0.119013 0)
(0.00253832 0.125543 0)
(0.00271379 0.131905 0)
(0.00287335 0.138099 0)
(0.00301433 0.144123 0)
(0.00313426 0.149979 0)
(0.00323089 0.155668 0)
(0.00330226 0.161194 0)
(0.00334667 0.166563 0)
(0.00336276 0.17178 0)
(0.00334951 0.176854 0)
(0.00330627 0.181794 0)
(0.00323274 0.18661 0)
(0.00312902 0.191315 0)
(0.0029956 0.195921 0)
(0.00283332 0.200442 0)
(0.00264342 0.204893 0)
(0.00242745 0.209288 0)
(0.00218732 0.213641 0)
(0.00192522 0.217968 0)
(0.00164359 0.222282 0)
(0.0013451 0.226597 0)
(0.00103259 0.230925 0)
(0.000709051 0.235276 0)
(0.000377523 0.239659 0)
(4.1101e-05 0.244081 0)
(-0.000297138 0.248545 0)
(-0.000634179 0.253052 0)
(-0.000967111 0.257601 0)
(-0.00129317 0.262186 0)
(-0.00160976 0.2668 0)
(-0.0019145 0.271431 0)
(-0.00220527 0.276062 0)
(-0.00248017 0.280675 0)
(-0.00273762 0.285248 0)
(-0.00297631 0.289755 0)
(-0.00319524 0.294166 0)
(-0.00339374 0.29845 0)
(-0.00357143 0.302572 0)
(-0.0037283 0.306495 0)
(-0.00386464 0.31018 0)
(-0.00398111 0.313587 0)
(-0.0040787 0.316675 0)
(-0.00415876 0.319402 0)
(-0.00422296 0.321728 0)
(-0.00427335 0.323613 0)
(-0.00431231 0.32502 0)
(-0.00434253 0.325915 0)
(-0.004367 0.326267 0)
(-0.00438901 0.326049 0)
(-0.00441205 0.325243 0)
(-0.00443979 0.323833 0)
(-0.00447601 0.321811 0)
(-0.00452453 0.319179 0)
(-0.00458911 0.315942 0)
(-0.00467336 0.312117 0)
(-0.00478068 0.307726 0)
(-0.00491413 0.302798 0)
(-0.00507633 0.297368 0)
(-0.00526943 0.291478 0)
(-0.00549501 0.285172 0)
(-0.00575405 0.278497 0)
(-0.00604693 0.271501 0)
(-0.00637341 0.26423 0)
(-0.00673273 0.256728 0)
(-0.00712361 0.249033 0)
(-0.00754444 0.24118 0)
(-0.00799333 0.233195 0)
(-0.00846832 0.225094 0)
(-0.0089675 0.216889 0)
(-0.00948917 0.208579 0)
(-0.010032 0.200158 0)
(-0.0105952 0.19161 0)
(-0.0111786 0.182915 0)
(-0.0117826 0.174047 0)
(-0.0124083 0.164977 0)
(-0.0130578 0.155673 0)
(-0.0137335 0.146107 0)
(-0.0144386 0.136248 0)
(-0.0151769 0.126071 0)
(-0.0159523 0.115553 0)
(-0.0167693 0.104679 0)
(-0.0176323 0.0934357 0)
(-0.018546 0.0818177 0)
(-0.0195147 0.0698246 0)
(5.8075e-06 0.00420743 0)
(3.60076e-05 0.0124864 0)
(0.000102326 0.0206933 0)
(0.000200746 0.0288234 0)
(0.00032771 0.0368716 0)
(0.000480997 0.0448321 0)
(0.000658413 0.052699 0)
(0.000857479 0.0604658 0)
(0.00107552 0.068126 0)
(0.00130973 0.0756727 0)
(0.00155718 0.0830991 0)
(0.00181486 0.0903987 0)
(0.00207966 0.0975647 0)
(0.00234842 0.104591 0)
(0.00261796 0.111472 0)
(0.00288511 0.118202 0)
(0.00314673 0.124778 0)
(0.00339976 0.131195 0)
(0.00364125 0.137451 0)
(0.00386837 0.143544 0)
(0.00407851 0.149475 0)
(0.00426927 0.155243 0)
(0.00443847 0.160853 0)
(0.00458427 0.166307 0)
(0.00470511 0.171612 0)
(0.00479978 0.176772 0)
(0.00486745 0.181798 0)
(0.00490765 0.186698 0)
(0.00492034 0.191484 0)
(0.00490585 0.196166 0)
(0.00486492 0.200758 0)
(0.00479868 0.205273 0)
(0.00470864 0.209726 0)
(0.00459664 0.21413 0)
(0.00446488 0.2185 0)
(0.00431583 0.222849 0)
(0.00415221 0.227191 0)
(0.00397693 0.231537 0)
(0.00379307 0.235898 0)
(0.00360382 0.240283 0)
(0.00341238 0.244699 0)
(0.00322198 0.24915 0)
(0.00303577 0.253638 0)
(0.00285679 0.258161 0)
(0.00268792 0.262716 0)
(0.00253184 0.267295 0)
(0.00239097 0.271886 0)
(0.00226748 0.276475 0)
(0.00216318 0.281044 0)
(0.00207959 0.285571 0)
(0.00201784 0.290031 0)
(0.0019787 0.294396 0)
(0.00196255 0.298634 0)
(0.00196937 0.302712 0)
(0.00199875 0.306592 0)
(0.00204986 0.310238 0)
(0.00212146 0.313609 0)
(0.00221191 0.316664 0)
(0.00231916 0.319363 0)
(0.00244078 0.321666 0)
(0.00257396 0.323533 0)
(0.00271551 0.324928 0)
(0.00286196 0.325816 0)
(0.00300952 0.326167 0)
(0.00315417 0.325955 0)
(0.00329174 0.325159 0)
(0.00341795 0.323766 0)
(0.0035285 0.321767 0)
(0.0036192 0.319163 0)
(0.00368602 0.315959 0)
(0.00372525 0.31217 0)
(0.00373357 0.307819 0)
(0.00370816 0.302933 0)
(0.0036468 0.297547 0)
(0.00354792 0.291701 0)
(0.00341067 0.285439 0)
(0.00323496 0.278807 0)
(0.00302138 0.271852 0)
(0.00277124 0.264618 0)
(0.00248642 0.25715 0)
(0.00216929 0.249487 0)
(0.00182255 0.241661 0)
(0.00144905 0.233698 0)
(0.00105162 0.225618 0)
(0.000632833 0.217428 0)
(0.000194879 0.209132 0)
(-0.000260685 0.200723 0)
(-0.000733031 0.192186 0)
(-0.00122217 0.183502 0)
(-0.00172905 0.174646 0)
(-0.00225557 0.165589 0)
(-0.00280455 0.156301 0)
(-0.00337964 0.146752 0)
(-0.00398527 0.136915 0)
(-0.00462645 0.126763 0)
(-0.00530868 0.116275 0)
(-0.00603777 0.105433 0)
(-0.00681965 0.0942259 0)
(-0.00766031 0.0826477 0)
(-0.00856554 0.0706974 0)
(6.37785e-06 0.00412467 0)
(3.98025e-05 0.0122512 0)
(0.000113546 0.0203178 0)
(0.000223472 0.0283201 0)
(0.000365973 0.0362531 0)
(0.000538935 0.0441114 0)
(0.000740285 0.051889 0)
(0.000967643 0.0595797 0)
(0.00121842 0.0671768 0)
(0.00148988 0.0746737 0)
(0.00177917 0.0820632 0)
(0.00208331 0.0893386 0)
(0.00239922 0.0964929 0)
(0.00272375 0.10352 0)
(0.00305372 0.110412 0)
(0.00338592 0.117166 0)
(0.00371715 0.123774 0)
(0.00404428 0.130233 0)
(0.00436426 0.13654 0)
(0.00467416 0.142693 0)
(0.00497122 0.148688 0)
(0.00525289 0.154528 0)
(0.00551684 0.160213 0)
(0.00576104 0.165746 0)
(0.00598375 0.171131 0)
(0.00618359 0.176373 0)
(0.00635952 0.18148 0)
(0.00651092 0.18646 0)
(0.00663756 0.191322 0)
(0.00673961 0.196078 0)
(0.00681769 0.200738 0)
(0.00687279 0.205317 0)
(0.00690633 0.209826 0)
(0.00692011 0.21428 0)
(0.00691626 0.218691 0)
(0.00689726 0.223075 0)
(0.00686585 0.227442 0)
(0.00682499 0.231806 0)
(0.00677783 0.236177 0)
(0.00672765 0.240563 0)
(0.00667779 0.244973 0)
(0.00663159 0.249411 0)
(0.00659232 0.253878 0)
(0.00656317 0.258375 0)
(0.00654713 0.262899 0)
(0.00654697 0.267441 0)
(0.00656519 0.271992 0)
(0.00660398 0.276538 0)
(0.00666515 0.281063 0)
(0.00675016 0.285544 0)
(0.00686 0.289958 0)
(0.00699528 0.294277 0)
(0.00715611 0.298471 0)
(0.00734215 0.302507 0)
(0.00755259 0.306349 0)
(0.00778615 0.309959 0)
(0.00804105 0.313299 0)
(0.00831506 0.316328 0)
(0.00860549 0.319007 0)
(0.00890923 0.321294 0)
(0.00922272 0.323153 0)
(0.00954207 0.324545 0)
(0.00986303 0.325438 0)
(0.0101811 0.3258 0)
(0.0104915 0.325606 0)
(0.0107895 0.324835 0)
(0.0110701 0.323473 0)
(0.0113286 0.32151 0)
(0.0115604 0.318947 0)
(0.0117611 0.31579 0)
(0.011927 0.312051 0)
(0.0120547 0.307751 0)
(0.0121416 0.302919 0)
(0.0121857 0.297588 0)
(0.012186 0.291796 0)
(0.0121423 0.285586 0)
(0.0120552 0.279004 0)
(0.0119262 0.272094 0)
(0.0117576 0.264903 0)
(0.0115523 0.257473 0)
(0.0113135 0.249841 0)
(0.0110451 0.242043 0)
(0.0107507 0.234103 0)
(0.010434 0.22604 0)
(0.0100983 0.217865 0)
(0.00974608 0.209581 0)
(0.00937932 0.201181 0)
(0.00899886 0.192653 0)
(0.00860451 0.183978 0)
(0.00819492 0.175132 0)
(0.00776756 0.166088 0)
(0.0073188 0.156816 0)
(0.00684398 0.147288 0)
(0.00633752 0.137475 0)
(0.00579314 0.127352 0)
(0.00520401 0.116898 0)
(0.00456295 0.106096 0)
(0.00386261 0.0949324 0)
(0.00309563 0.0834023 0)
(0.00225487 0.0715041 0)
(6.88419e-06 0.0040356 0)
(4.31971e-05 0.0119971 0)
(0.000123622 0.0199104 0)
(0.000243936 0.0277717 0)
(0.000400516 0.0355762 0)
(0.000591374 0.0433186 0)
(0.000814574 0.0509933 0)
(0.00106786 0.0585941 0)
(0.00134874 0.0661145 0)
(0.00165459 0.0735476 0)
(0.00198263 0.0808864 0)
(0.00232996 0.0881239 0)
(0.00269355 0.095253 0)
(0.00307031 0.102267 0)
(0.00345704 0.109158 0)
(0.00385055 0.115922 0)
(0.00424762 0.122551 0)
(0.00464506 0.129042 0)
(0.00503974 0.135389 0)
(0.00542867 0.141589 0)
(0.00580895 0.147641 0)
(0.00617791 0.153543 0)
(0.00653307 0.159295 0)
(0.00687223 0.164899 0)
(0.00719349 0.170358 0)
(0.00749528 0.175676 0)
(0.00777637 0.180859 0)
(0.00803596 0.185913 0)
(0.00827363 0.190849 0)
(0.00848939 0.195675 0)
(0.00868369 0.200401 0)
(0.0088574 0.205041 0)
(0.00901181 0.209605 0)
(0.00914862 0.214107 0)
(0.00926991 0.21856 0)
(0.00937811 0.222977 0)
(0.00947594 0.22737 0)
(0.00956641 0.231751 0)
(0.00965271 0.236131 0)
(0.00973819 0.240519 0)
(0.00982629 0.244922 0)
(0.00992044 0.249346 0)
(0.0100241 0.253793 0)
(0.0101405 0.258263 0)
(0.0102728 0.262754 0)
(0.0104238 0.26726 0)
(0.0105962 0.271771 0)
(0.0107922 0.276274 0)
(0.0110137 0.280753 0)
(0.011262 0.285188 0)
(0.011538 0.289556 0)
(0.0118424 0.293831 0)
(0.0121748 0.297983 0)
(0.0125348 0.301979 0)
(0.0129212 0.305785 0)
(0.0133324 0.309363 0)
(0.0137659 0.312677 0)
(0.0142192 0.315685 0)
(0.014689 0.318349 0)
(0.0151714 0.320629 0)
(0.0156623 0.322487 0)
(0.0161571 0.323886 0)
(0.0166509 0.324793 0)
(0.0171383 0.325177 0)
(0.0176142 0.325012 0)
(0.0180728 0.324278 0)
(0.0185089 0.322958 0)
(0.0189171 0.321044 0)
(0.0192924 0.318535 0)
(0.0196301 0.315436 0)
(0.0199264 0.311759 0)
(0.0201777 0.307523 0)
(0.0203815 0.302756 0)
(0.0205362 0.297489 0)
(0.0206411 0.29176 0)
(0.0206964 0.28561 0)
(0.0207035 0.279084 0)
(0.0206646 0.272227 0)
(0.0205827 0.265082 0)
(0.0204617 0.257692 0)
(0.0203058 0.250095 0)
(0.0201196 0.242324 0)
(0.0199077 0.234407 0)
(0.0196745 0.226362 0)
(0.0194239 0.2182 0)
(0.0191589 0.209926 0)
(0.0188818 0.201534 0)
(0.0185935 0.193014 0)
(0.0182938 0.184347 0)
(0.0179809 0.175511 0)
(0.0176519 0.166479 0)
(0.0173023 0.157225 0)
(0.0169266 0.147718 0)
(0.0165183 0.137933 0)
(0.0160698 0.127843 0)
(0.015573 0.117428 0)
(0.0150195 0.10667 0)
(0.0144006 0.0955575 0)
(0.0137076 0.0840833 0)
(0.012932 0.0722457 0)
(7.32739e-06 0.00394128 0)
(4.61941e-05 0.0117269 0)
(0.000132555 0.019476 0)
(0.000262138 0.027185 0)
(0.000431333 0.0348493 0)
(0.000638292 0.042464 0)
(0.00088123 0.0500237 0)
(0.00115803 0.0575222 0)
(0.00146633 0.0649532 0)
(0.00180362 0.0723099 0)
(0.00216723 0.0795854 0)
(0.00255437 0.0867723 0)
(0.00296208 0.0938634 0)
(0.00338732 0.100852 0)
(0.00382697 0.10773 0)
(0.00427784 0.114491 0)
(0.00473671 0.12113 0)
(0.00520038 0.12764 0)
(0.00566569 0.134016 0)
(0.00612956 0.140255 0)
(0.00658902 0.146352 0)
(0.00704127 0.152307 0)
(0.00748371 0.158118 0)
(0.007914 0.163785 0)
(0.00833006 0.169311 0)
(0.00873015 0.174698 0)
(0.00911287 0.179952 0)
(0.00947721 0.185077 0)
(0.00982258 0.190082 0)
(0.0101488 0.194974 0)
(0.0104562 0.199764 0)
(0.0107454 0.204463 0)
(0.0110175 0.20908 0)
(0.0112743 0.21363 0)
(0.0115176 0.218123 0)
(0.0117499 0.222573 0)
(0.0119737 0.226992 0)
(0.0121922 0.23139 0)
(0.0124085 0.235779 0)
(0.012626 0.240168 0)
(0.0128483 0.244565 0)
(0.0130788 0.248975 0)
(0.0133211 0.253401 0)
(0.0135787 0.257844 0)
(0.0138547 0.262303 0)
(0.0141522 0.266772 0)
(0.0144738 0.271242 0)
(0.0148219 0.275702 0)
(0.0151984 0.280136 0)
(0.0156046 0.284525 0)
(0.0160416 0.288848 0)
(0.0165095 0.293079 0)
(0.0170083 0.297189 0)
(0.0175371 0.301147 0)
(0.0180944 0.304919 0)
(0.0186783 0.308469 0)
(0.0192861 0.31176 0)
(0.0199146 0.314752 0)
(0.0205599 0.317407 0)
(0.0212178 0.319685 0)
(0.0218835 0.321549 0)
(0.0225517 0.322963 0)
(0.0232168 0.323892 0)
(0.0238729 0.324307 0)
(0.0245141 0.324181 0)
(0.0251342 0.323493 0)
(0.0257271 0.322227 0)
(0.0262872 0.320373 0)
(0.0268088 0.317929 0)
(0.0272871 0.314899 0)
(0.0277178 0.311294 0)
(0.0280974 0.307133 0)
(0.0284233 0.30244 0)
(0.028694 0.297247 0)
(0.0289091 0.29159 0)
(0.0290692 0.285508 0)
(0.0291762 0.279045 0)
(0.029233 0.272245 0)
(0.0292432 0.265151 0)
(0.0292114 0.257805 0)
(0.0291428 0.250245 0)
(0.0290426 0.242505 0)
(0.0289164 0.234611 0)
(0.0287691 0.226583 0)
(0.0286053 0.218435 0)
(0.0284286 0.21017 0)
(0.0282415 0.201785 0)
(0.0280452 0.193271 0)
(0.0278393 0.184612 0)
(0.0276219 0.175785 0)
(0.0273897 0.166767 0)
(0.0271376 0.15753 0)
(0.0268594 0.148047 0)
(0.0265475 0.138292 0)
(0.0261933 0.128239 0)
(0.0257877 0.117867 0)
(0.0253209 0.107159 0)
(0.0247828 0.0961038 0)
(0.0241636 0.0846926 0)
(0.0234534 0.0729235 0)
(7.70889e-06 0.00384273 0)
(4.88003e-05 0.0114437 0)
(0.000140363 0.0190195 0)
(0.000278105 0.0265665 0)
(0.000458459 0.0340807 0)
(0.000679727 0.0415574 0)
(0.00094029 0.0489913 0)
(0.00123818 0.0563766 0)
(0.00157118 0.0637071 0)
(0.00193693 0.0709759 0)
(0.00233288 0.0781763 0)
(0.00275635 0.0853008 0)
(0.00320451 0.0923421 0)
(0.00367439 0.099293 0)
(0.00416295 0.106146 0)
(0.00466704 0.112894 0)
(0.0051835 0.11953 0)
(0.00570911 0.126049 0)
(0.00624069 0.132443 0)
(0.00677514 0.13871 0)
(0.00730942 0.144843 0)
(0.00784064 0.150842 0)
(0.00836609 0.156703 0)
(0.0088833 0.162426 0)
(0.00939005 0.168011 0)
(0.00988441 0.173462 0)
(0.0103648 0.17878 0)
(0.0108301 0.183971 0)
(0.0112795 0.18904 0)
(0.0117125 0.193996 0)
(0.0121294 0.198847 0)
(0.0125306 0.203601 0)
(0.0129171 0.208271 0)
(0.0132904 0.212866 0)
(0.0136524 0.217399 0)
(0.0140052 0.221882 0)
(0.0143517 0.226325 0)
(0.0146946 0.230741 0)
(0.0150372 0.23514 0)
(0.015383 0.23953 0)
(0.0157354 0.24392 0)
(0.0160982 0.248316 0)
(0.016475 0.252722 0)
(0.0168693 0.257139 0)
(0.0172844 0.261565 0)
(0.0177234 0.265997 0)
(0.0181893 0.270426 0)
(0.0186843 0.274842 0)
(0.0192106 0.279231 0)
(0.0197694 0.283575 0)
(0.0203618 0.287853 0)
(0.0209881 0.292041 0)
(0.0216479 0.29611 0)
(0.0223402 0.300031 0)
(0.0230635 0.303771 0)
(0.0238154 0.307295 0)
(0.024593 0.310565 0)
(0.0253926 0.313544 0)
(0.0262099 0.316194 0)
(0.0270403 0.318475 0)
(0.0278782 0.320351 0)
(0.0287178 0.321786 0)
(0.0295531 0.322745 0)
(0.0303774 0.323199 0)
(0.0311841 0.32312 0)
(0.0319666 0.322487 0)
(0.0327181 0.321283 0)
(0.0334324 0.319499 0)
(0.0341036 0.317129 0)
(0.0347263 0.314179 0)
(0.0352958 0.310656 0)
(0.0358086 0.306579 0)
(0.036262 0.30197 0)
(0.0366544 0.29686 0)
(0.0369856 0.291282 0)
(0.0372566 0.285276 0)
(0.0374694 0.278883 0)
(0.0376275 0.272147 0)
(0.0377352 0.265109 0)
(0.0377977 0.257811 0)
(0.0378208 0.250291 0)
(0.0378105 0.242583 0)
(0.037773 0.234714 0)
(0.037714 0.226706 0)
(0.0376386 0.21857 0)
(0.037551 0.210315 0)
(0.037454 0.201937 0)
(0.037349 0.19343 0)
(0.0372358 0.184777 0)
(0.0371124 0.175961 0)
(0.0369751 0.166956 0)
(0.0368184 0.157738 0)
(0.0366354 0.148281 0)
(0.0364177 0.138557 0)
(0.0361558 0.128544 0)
(0.0358395 0.11822 0)
(0.0354579 0.107567 0)
(0.0349998 0.0965741 0)
(0.0344538 0.0852323 0)
(0.033809 0.073539 0)
(8.03041e-06 0.00374089 0)
(5.10253e-05 0.0111503 0)
(0.000147069 0.0185452 0)
(0.000291882 0.0259225 0)
(0.000481961 0.0332783 0)
(0.000715768 0.0406082 0)
(0.00099186 0.0479072 0)