# Probe 0 (0.5 0.5 0.05)
# Time        0            
0.001         0.194558     
0.002         0.145244     
0.003         0.115039     
0.004         0.0953637    
0.005         0.0820064    
0.006         0.0725447    
0.007         0.0655636    
0.008         0.060213     
0.009         0.0559738    
0.01          0.0525183    
0.011         0.0496335    
0.012         0.0471776    
0.013         0.0450523    
0.014         0.0431889    
0.015         0.0415356    
0.016         0.0400556    
0.017         0.0387193    
0.018         0.0375008    
0.019         0.0363904    
0.02          0.0353695    
0.021         0.0344261    
0.022         0.0335508    
0.023         0.0327355    
0.024         0.0319738    
0.025         0.0312601    
0.026         0.0305888    
0.027         0.029956     
0.028         0.0293572    
0.029         0.0287913    
0.03          0.0282542    
0.031         0.0277435    
0.032         0.0272573    
0.033         0.0267078    
0.034         0.0262829    
0.035         0.025857     
0.036         0.0254532    
0.037         0.025065     
0.038         0.0246922    
0.039         0.0243337    
0.04          0.0239883    
0.041         0.0236552    
0.042         0.0233339    
0.043         0.0230236    
0.044         0.0227236    
0.045         0.0224332    
0.046         0.022152     
0.047         0.0218795    
0.048         0.0216151    
0.049         0.0213584    
0.05          0.0211092    
0.051         0.0208669    
0.052         0.0206312    
0.053         0.0204018    
0.054         0.0201785    
0.055         0.0199609    
0.056         0.0197487    
0.057         0.0195418    
0.058         0.0193399    
0.059         0.0191428    
0.06          0.0189502    
0.061         0.018762     
0.062         0.018578     
0.063         0.018398     
0.064         0.018222     
0.065         0.0180496    
0.066         0.0178808    
0.067         0.0177154    
0.068         0.0175534    
0.069         0.0173945    
0.07          0.0172387    
0.071         0.0170859    
0.072         0.0169359    
0.073         0.0167887    
0.074         0.0166441    
0.075         0.0165022    
0.076         0.0163627    
0.077         0.0162256    
0.078         0.0160909    
0.079         0.0159584    
0.08          0.015828     
0.081         0.0156998    
0.082         0.0155736    
0.083         0.0154494    
0.084         0.0153272    
0.085         0.0152067    
0.086         0.0150881    
0.087         0.0149713    
0.088         0.0148562    
0.089         0.0147427    
0.09          0.0146308    
0.091         0.0145205    
0.092         0.0144118    
0.093         0.0143045    
0.094         0.0141987    
0.095         0.0140942    
0.096         0.0139911    
0.097         0.0138894    
0.098         0.0137889    
0.099         0.0136898    
0.1           0.0135918    
0.101         0.013495     
0.102         0.0133995    
0.103         0.013305     
0.104         0.0132117    
0.105         0.0131194    
0.106         0.0130284    
0.107         0.0129382    
0.108         0.0128491    
0.109         0.0127609    
0.11          0.0126738    
0.111         0.0125875    
0.112         0.0125022    
0.113         0.0124178    
0.114         0.0123343    
0.115         0.0122516    
0.116         0.0121698    
0.117         0.0120888    
0.118         0.0120086    
0.119         0.0119292    
0.12          0.0118508    
0.121         0.011773     
0.122         0.0116959    
0.123         0.0116195    
0.124         0.0115439    
0.125         0.0114689    
0.126         0.0113946    
0.127         0.011321     
0.128         0.011248     
0.129         0.0111756    
0.13          0.011104     
0.131         0.0110329    
0.132         0.0109624    
0.133         0.0108925    
0.134         0.0108232    
0.135         0.0107545    
0.136         0.0106863    
0.137         0.0106187    
0.138         0.0105516    
0.139         0.0104851    
0.14          0.010419     
0.141         0.0103535    
0.142         0.0102885    
0.143         0.010224     
0.144         0.01016      
0.145         0.0100964    
0.146         0.0100334    
0.147         0.00997075   
0.148         0.00990859   
0.149         0.00984688   
0.15          0.00978561   
0.151         0.00972477   
0.152         0.00966435   
0.153         0.00960435   
0.154         0.00954476   
0.155         0.00948557   
0.156         0.00942678   
0.157         0.00936839   
0.158         0.00931038   
0.159         0.00925274   
0.16          0.00919547   
0.161         0.00913857   
0.162         0.00908204   
0.163         0.00902586   
0.164         0.00897003   
0.165         0.00891456   
0.166         0.00885946   
0.167         0.00880461   
0.168         0.00875014   
0.169         0.00869595   
0.17          0.00864214   
0.171         0.00858867   
0.172         0.00853538   
0.173         0.00848249   
0.174         0.0084299    
0.175         0.00837759   
0.176         0.00832558   
0.177         0.00827385   
0.178         0.00822241   
0.179         0.00817125   
0.18          0.00812037   
0.181         0.00806979   
0.182         0.00801948   
0.183         0.00796934   
0.184         0.00791957   
0.185         0.00787001   
0.186         0.00782071   
0.187         0.00777167   
0.188         0.00772287   
0.189         0.00767432   
0.19          0.00762601   
0.191         0.00757793   
0.192         0.00753009   
0.193         0.00748248   
0.194         0.00743513   
0.195         0.00738795   
0.196         0.00734105   
0.197         0.00729435   
0.198         0.00724786   
0.199         0.00720159   
0.2           0.00715553   
0.201         0.00710968   
0.202         0.00706404   
0.203         0.00701861   
0.204         0.00697337   
0.205         0.00692833   
0.206         0.0068835    
0.207         0.00683886   
0.208         0.00679441   
0.209         0.00675015   
0.21          0.00670609   
0.211         0.0066622    
0.212         0.00661851   
0.213         0.00657499   
0.214         0.00653166   
0.215         0.0064885    
0.216         0.0064455    
0.217         0.00640271   
0.218         0.00636007   
0.219         0.00631761   
0.22          0.00627531   
0.221         0.00623316   
0.222         0.00619121   
0.223         0.00614941   
0.224         0.00610777   
0.225         0.00606628   
0.226         0.00602495   
0.227         0.00598379   
0.228         0.00594276   
0.229         0.0059019    
0.23          0.00586119   
0.231         0.00582062   
0.232         0.00578021   
0.233         0.00573994   
0.234         0.00569982   
0.235         0.00565983   
0.236         0.00562002   
0.237         0.00558032   
0.238         0.00554076   
0.239         0.00550134   
0.24          0.00546205   
0.241         0.00542289   
0.242         0.00538387   
0.243         0.00534499   
0.244         0.00530623   
0.245         0.00526761   
0.246         0.00522911   
0.247         0.00519074   
0.248         0.0051525    
0.249         0.00511438   
0.25          0.00507643   
0.251         0.00503857   
0.252         0.00500076   
0.253         0.00496313   
0.254         0.00492562   
0.255         0.00488823   
0.256         0.00485098   
0.257         0.00481388   
0.258         0.00477675   
0.259         0.00473982   
0.26          0.00470299   
0.261         0.00466629   
0.262         0.00462969   
0.263         0.00459321   
0.264         0.00455683   
0.265         0.00452056   
0.266         0.0044844    
0.267         0.00444834   
0.268         0.00441243   
0.269         0.00437659   
0.27          0.0043408    
0.271         0.00430516   
0.272         0.00426962   
0.273         0.00423418   
0.274         0.00419885   
0.275         0.00416361   
0.276         0.00412847   
0.277         0.00409343   
0.278         0.00405848   
0.279         0.00402363   
0.28          0.00398888   
0.281         0.00395422   
0.282         0.0039031    
0.283         0.00387298   
0.284         0.00383773   
0.285         0.00380369   
0.286         0.00376953   
0.287         0.00373551   
0.288         0.00370158   
0.289         0.00366775   
0.29          0.003634     
0.291         0.00360035   
0.292         0.00356678   
0.293         0.0035333    
0.294         0.00349991   
0.295         0.0034666    
0.296         0.00343338   
0.297         0.00340024   
0.298         0.00336719   
0.299         0.00333421   
0.3           0.00330132   
0.301         0.00326851   
0.302         0.00323578   
0.303         0.00320313   
0.304         0.00317056   
0.305         0.00313807   
0.306         0.00310565   
0.307         0.00307332   
0.308         0.00304106   
0.309         0.00300888   
0.31          0.00297678   
0.311         0.00294475   
0.312         0.00291279   
0.313         0.00288091   
0.314         0.00284911   
0.315         0.00281738   
0.316         0.00278572   
0.317         0.00275413   
0.318         0.00272263   
0.319         0.00269118   
0.32          0.00265981   
0.321         0.00262851   
0.322         0.00259729   
0.323         0.00256613   
0.324         0.00253504   
0.325         0.00250403   
0.326         0.00247308   
0.327         0.0024422    
0.328         0.00241139   
0.329         0.00238064   
0.33          0.00234997   
0.331         0.00231935   
0.332         0.00228882   
0.333         0.00225835   
0.334         0.00222793   
0.335         0.00219759   
0.336         0.00216732   
0.337         0.0021371    
0.338         0.00210696   
0.339         0.00207687   
0.34          0.00204685   
0.341         0.00201689   
0.342         0.001987     
0.343         0.00195717   
0.344         0.0019274    
0.345         0.00189771   
0.346         0.00186807   
0.347         0.00183848   
0.348         0.00180896   
0.349         0.00177951   
0.35          0.00175011   
0.351         0.00172077   
0.352         0.0016915    
0.353         0.00166228   
0.354         0.00163312   
0.355         0.00160403   
0.356         0.00157499   
0.357         0.00154601   
0.358         0.00151709   
0.359         0.00148822   
0.36          0.00145943   
0.361         0.00143068   
0.362         0.00140201   
0.363         0.00137336   
0.364         0.00134478   
0.365         0.00131627   
0.366         0.00128781   
0.367         0.00125941   
0.368         0.00123106   
0.369         0.00120277   
0.37          0.00117454   
0.371         0.00114636   
0.372         0.00111823   
0.373         0.00109017   
0.374         0.00106215   
0.375         0.00103419   
0.376         0.00100628   
0.377         0.000978432  
0.378         0.00095063   
0.379         0.000922895  
0.38          0.000895205  
0.381         0.000867568  
0.382         0.000839989  
0.383         0.000812457  
0.384         0.000784966  
0.385         0.000757554  
0.386         0.000730176  
0.387         0.00070286   
0.388         0.000675593  
0.389         0.000648374  
0.39          0.000621213  
0.391         0.000594113  
0.392         0.000567039  
0.393         0.000540026  
0.394         0.000513069  
0.395         0.000486163  
0.396         0.000459295  
0.397         0.000432493  
0.398         0.000405725  
0.399         0.00037903   
0.4           0.000352384  
0.401         0.000325769  
0.402         0.000299179  
0.403         0.000272718  
0.404         0.000246261  
0.405         0.000221698  
0.406         0.00019543   
0.407         0.000169111  
0.408         0.000142833  
0.409         0.000116607  
0.41          9.04361e-05  
0.411         6.43157e-05  
0.412         3.82478e-05  
0.413         1.22145e-05  
0.414         -1.37306e-05 
0.415         -3.961e-05   
0.416         -6.55175e-05 
0.417         -9.13866e-05 
0.418         -0.000117186 
0.419         -0.000142917 
0.42          -0.000168603 
0.421         -0.000194245 
0.422         -0.00021984  
0.423         -0.000245379 
0.424         -0.000270878 
0.425         -0.000296322 
0.426         -0.000321733 
0.427         -0.000347081 
0.428         -0.000372352 
0.429         -0.000397593 
0.43          -0.000422862 
0.431         -0.000448042 
0.432         -0.00047312  
0.433         -0.000498225 
0.434         -0.000523273 
0.435         -0.000548256 
0.436         -0.000573198 
0.437         -0.000598108 
0.438         -0.000622949 
0.439         -0.000647743 
0.44          -0.000672496 
0.441         -0.000697208 
0.442         -0.000721884 
0.443         -0.000746498 
0.444         -0.000771069 
0.445         -0.000795599 
0.446         -0.000820085 
0.447         -0.000844535 
0.448         -0.000868923 
0.449         -0.000893285 
0.45          -0.000917589 
0.451         -0.000941858 
0.452         -0.000966067 
0.453         -0.000990231 
0.454         -0.00101431  
0.455         -0.00103838  
0.456         -0.00106243  
0.457         -0.00108642  
0.458         -0.00111038  
0.459         -0.00113428  
0.46          -0.00115814  
0.461         -0.00118196  
0.462         -0.00120581  
0.463         -0.00122953  
0.464         -0.00125321  
0.465         -0.00127681  
0.466         -0.00130041  
0.467         -0.00132395  
0.468         -0.00134745  
0.469         -0.00137089  
0.47          -0.00139436  
0.471         -0.00141775  
0.472         -0.00144109  
0.473         -0.00146434  
0.474         -0.0014876   
0.475         -0.00151085  
0.476         -0.001534    
0.477         -0.00155713  
0.478         -0.00158023  
0.479         -0.00160328  
0.48          -0.00162626  
0.481         -0.00164923  
0.482         -0.00167214  
0.483         -0.00169501  
0.484         -0.00171786  
0.485         -0.00174053  
0.486         -0.00176341  
0.487         -0.00178607  
0.488         -0.00180865  
0.489         -0.00183132  
0.49          -0.00185389  
0.491         -0.00187642  
0.492         -0.00189893  
0.493         -0.00192137  
0.494         -0.00194377  
0.495         -0.00196614  
0.496         -0.00198846  
0.497         -0.00201073  
0.498         -0.00203297  
0.499         -0.00205518  
0.5           -0.00207733  
0.501         -0.00209945  
0.502         -0.00212151  
0.503         -0.00214354  
0.504         -0.00216553  
0.505         -0.00218748  
0.506         -0.00220938  
0.507         -0.00223125  
0.508         -0.00225307  
0.509         -0.00227485  
0.51          -0.00229658  
0.511         -0.00231829  
0.512         -0.00233994  
0.513         -0.00236155  
0.514         -0.00238313  
0.515         -0.00240466  
0.516         -0.00242616  
0.517         -0.00244761  
0.518         -0.00246899  
0.519         -0.00249036  
0.52          -0.00251169  
0.521         -0.00253297  
0.522         -0.00255421  
0.523         -0.00257542  
0.524         -0.00259657  
0.525         -0.00261771  
0.526         -0.00263876  
0.527         -0.00265979  
0.528         -0.0026808   
0.529         -0.00270175  
0.53          -0.00272267  
0.531         -0.00274353  
0.532         -0.00276438  
0.533         -0.00278516  
0.534         -0.00280591  
0.535         -0.00282662  
0.536         -0.00284729  
0.537         -0.00286792  
0.538         -0.00288851  
0.539         -0.00290905  
0.54          -0.00292954  
0.541         -0.00295002  
0.542         -0.00297044  
0.543         -0.00299082  
0.544         -0.00301118  
0.545         -0.00303147  
0.546         -0.00305172  
0.547         -0.00307195  
0.548         -0.00309213  
0.549         -0.00311227  
0.55          -0.00313237  
0.551         -0.00315242  
0.552         -0.00317244  
0.553         -0.00319242  
0.554         -0.00321238  
0.555         -0.00323224  
0.556         -0.0032521   
0.557         -0.00327193  
0.558         -0.00329169  
0.559         -0.00331143  
0.56          -0.00333111  
0.561         -0.00335078  
0.562         -0.00337038  
0.563         -0.00338997  
0.564         -0.0034095   
0.565         -0.00342897  
0.566         -0.00344843  
0.567         -0.00346784  
0.568         -0.00348722  
0.569         -0.00350654  
0.57          -0.00352586  
0.571         -0.00354508  
0.572         -0.0035643   
0.573         -0.00358345  
0.574         -0.00360258  
0.575         -0.00362168  
0.576         -0.00364073  
0.577         -0.00365973  
0.578         -0.0036787   
0.579         -0.00369764  
0.58          -0.00371653  
0.581         -0.00373537  
0.582         -0.00375418  
0.583         -0.00377294  
0.584         -0.00379167  
0.585         -0.00381036  
0.586         -0.00382901  
0.587         -0.00384762  
0.588         -0.00386618  
0.589         -0.00388471  
0.59          -0.00390319  
0.591         -0.00392164  
0.592         -0.00394005  
0.593         -0.00395841  
0.594         -0.00397675  
0.595         -0.00399504  
0.596         -0.00401329  
0.597         -0.00403147  
0.598         -0.00404964  
0.599         -0.00406777  
0.6           -0.0040859   
0.601         -0.00410389  
0.602         -0.0041219   
0.603         -0.00413987  
0.604         -0.00415781  
0.605         -0.00417568  
0.606         -0.00419353  
0.607         -0.00421134  
0.608         -0.0042291   
0.609         -0.00424684  
0.61          -0.00426454  
0.611         -0.00428217  
0.612         -0.00429978  
0.613         -0.00431734  
0.614         -0.00433486  
0.615         -0.00435236  
0.616         -0.00436981  
0.617         -0.00438722  
0.618         -0.0044046   
0.619         -0.00442194  
0.62          -0.00443919  
0.621         -0.00445645  
0.622         -0.00447366  
0.623         -0.00449083  
0.624         -0.00450794  
0.625         -0.00452504  
0.626         -0.00454209  
0.627         -0.0045591   
0.628         -0.00457608  
0.629         -0.004593    
0.63          -0.00460989  
0.631         -0.00462675  
0.632         -0.00464355  
0.633         -0.00466033  
0.634         -0.00467706  
0.635         -0.00469375  
0.636         -0.0047104   
0.637         -0.00472702  
0.638         -0.00474361  
0.639         -0.00476012  
0.64          -0.0047766   
0.641         -0.00479307  
0.642         -0.00480951  
0.643         -0.00482584  
0.644         -0.00484218  
0.645         -0.00485849  
0.646         -0.00487473  
0.647         -0.00489094  
0.648         -0.00490712  
0.649         -0.00492325  
0.65          -0.00493935  
0.651         -0.00495541  
0.652         -0.00497143  
0.653         -0.00498741  
0.654         -0.00500335  
0.655         -0.0050193   
0.656         -0.00503509  
0.657         -0.00505092  
0.658         -0.0050667   
0.659         -0.00508244  
0.66          -0.00509814  
0.661         -0.00511381  
0.662         -0.00512942  
0.663         -0.00514501  
0.664         -0.00516055  
0.665         -0.00517606  
0.666         -0.00519152  
0.667         -0.00520694  
0.668         -0.00522234  
0.669         -0.00523767  
0.67          -0.00525298  
0.671         -0.00526823  
0.672         -0.00528348  
0.673         -0.00529865  
0.674         -0.00531381  
0.675         -0.00532891  
0.676         -0.00534398  
0.677         -0.005359    
0.678         -0.005374    
0.679         -0.00538896  
0.68          -0.00540386  
0.681         -0.00541877  
0.682         -0.00543356  
0.683         -0.00544836  
0.684         -0.00546311  
0.685         -0.00547782  
0.686         -0.00549251  
0.687         -0.00550713  
0.688         -0.00552173  
0.689         -0.00553629  
0.69          -0.0055508   
0.691         -0.00556529  
0.692         -0.00557973  
0.693         -0.00559418  
0.694         -0.0056085   
0.695         -0.00562279  
0.696         -0.00563707  
0.697         -0.00565132  
0.698         -0.00566553  
0.699         -0.00567969  
0.7           -0.00569383  
0.701         -0.0057079   
0.702         -0.00572196  
0.703         -0.00573595  
0.704         -0.00574993  
0.705         -0.00576386  
0.706         -0.00577774  
0.707         -0.00579159  
0.708         -0.00580542  
0.709         -0.00581919  
0.71          -0.00583293  
0.711         -0.00584662  
0.712         -0.00586028  
0.713         -0.00587389  
0.714         -0.00588747  
0.715         -0.00590101  
0.716         -0.00591451  
0.717         -0.00592799  
0.718         -0.00594139  
0.719         -0.00595478  
0.72          -0.00596812  
0.721         -0.00598143  
0.722         -0.00599469  
0.723         -0.00600792  
0.724         -0.00602111  
0.725         -0.00603426  
0.726         -0.00604737  
0.727         -0.00606044  
0.728         -0.00607348  
0.729         -0.00608647  
0.73          -0.00609943  
0.731         -0.00611235  
0.732         -0.00612524  
0.733         -0.00613807  
0.734         -0.00615086  
0.735         -0.00616363  
0.736         -0.00617636  
0.737         -0.00618904  
0.738         -0.00620172  
0.739         -0.00621428  
0.74          -0.00622686  
0.741         -0.0062394   
0.742         -0.00625189  
0.743         -0.00626434  
0.744         -0.00627676  
0.745         -0.00628916  
0.746         -0.00630148  
0.747         -0.00631379  
0.748         -0.00632605  
0.749         -0.00633826  
0.75          -0.00635045  
0.751         -0.00636261  
0.752         -0.00637471  
0.753         -0.00638675  
0.754         -0.00639879  
0.755         -0.00641079  
0.756         -0.00642276  
0.757         -0.00643465  
0.758         -0.00644654  
0.759         -0.00645838  
0.76          -0.00647018  
0.761         -0.00648195  
0.762         -0.00649367  
0.763         -0.00650536  
0.764         -0.00651702  
0.765         -0.00652862  
0.766         -0.0065402   
0.767         -0.00655174  
0.768         -0.00656323  
0.769         -0.00657471  
0.77          -0.0065861   
0.771         -0.00659749  
0.772         -0.00660883  
0.773         -0.00662014  
0.774         -0.00663141  
0.775         -0.00664265  
0.776         -0.00665383  
0.777         -0.00666499  
0.778         -0.00667612  
0.779         -0.0066872   
0.78          -0.00669825  
0.781         -0.00670923  
0.782         -0.00672021  
0.783         -0.00673115  
0.784         -0.00674204  
0.785         -0.0067529   
0.786         -0.00676371  
0.787         -0.00677449  
0.788         -0.00678523  
0.789         -0.00679593  
0.79          -0.0068066   
0.791         -0.00681723  
0.792         -0.00682783  
0.793         -0.00683837  
0.794         -0.00684889  
0.795         -0.00685937  
0.796         -0.00686982  
0.797         -0.00688021  
0.798         -0.00689058  
0.799         -0.00690092  
0.8           -0.00691121  
0.801         -0.00692148  
0.802         -0.0069317   
0.803         -0.00694187  
0.804         -0.00695201  
0.805         -0.00696212  
0.806         -0.00697223  
0.807         -0.00698223  
0.808         -0.0069922   
0.809         -0.00700218  
0.81          -0.00701209  
0.811         -0.00702199  
0.812         -0.00703186  
0.813         -0.00704167  
0.814         -0.00705142  
0.815         -0.00706117  
0.816         -0.00707087  
0.817         -0.00708051  
0.818         -0.00709016  
0.819         -0.00709976  
0.82          -0.00710932  
0.821         -0.00711884  
0.822         -0.00712832  
0.823         -0.00713776  
0.824         -0.00714718  
0.825         -0.0071566   
0.826         -0.00716588  
0.827         -0.00717518  
0.828         -0.00718445  
0.829         -0.00719371  
0.83          -0.00720289  
0.831         -0.00721201  
0.832         -0.00722112  
0.833         -0.00723021  
0.834         -0.00723926  
0.835         -0.00724828  
0.836         -0.00725729  
0.837         -0.00726619  
0.838         -0.0072751   
0.839         -0.00728397  
0.84          -0.00729281  
0.841         -0.00730159  
0.842         -0.00731035  
0.843         -0.00731906  
0.844         -0.00732778  
0.845         -0.00733641  
0.846         -0.00734503  
0.847         -0.00735362  
0.848         -0.00736216  
0.849         -0.00737067  
0.85          -0.00737914  
0.851         -0.00738759  
0.852         -0.00739599  
0.853         -0.00740436  
0.854         -0.0074127   
0.855         -0.00742099  
0.856         -0.00742929  
0.857         -0.00743748  
0.858         -0.00744566  
0.859         -0.00745382  
0.86          -0.00746194  
0.861         -0.00747003  
0.862         -0.00747809  
0.863         -0.0074861   
0.864         -0.00749409  
0.865         -0.00750202  
0.866         -0.00750994  
0.867         -0.00751781  
0.868         -0.00752566  
0.869         -0.00753347  
0.87          -0.00754125  
0.871         -0.00754898  
0.872         -0.0075567   
0.873         -0.00756436  
0.874         -0.00757204  
0.875         -0.00757969  
0.876         -0.00758711  
0.877         -0.00759468  
0.878         -0.00760216  
0.879         -0.00760963  
0.88          -0.00761706  
0.881         -0.00762445  
0.882         -0.00763182  
0.883         -0.00763914  
0.884         -0.00764645  
0.885         -0.00765372  
0.886         -0.00766094  
0.887         -0.00766811  
0.888         -0.00767527  
0.889         -0.00768239  
0.89          -0.00768948  
0.891         -0.00769653  
0.892         -0.00770355  
0.893         -0.00771054  
0.894         -0.0077175   
0.895         -0.00772442  
0.896         -0.00773131  
0.897         -0.00773816  
0.898         -0.00774499  
0.899         -0.00775178  
0.9           -0.00775853  
0.901         -0.00776529  
0.902         -0.00777192  
0.903         -0.00777858  
0.904         -0.0077852   
0.905         -0.00779178  
0.906         -0.00779835  
0.907         -0.00780488  
0.908         -0.00781137  
0.909         -0.00781785  
0.91          -0.00782424  
0.911         -0.00783063  
0.912         -0.00783699  
0.913         -0.00784331  
0.914         -0.0078496   
0.915         -0.00785587  
0.916         -0.0078621   
0.917         -0.0078683   
0.918         -0.00787446  
0.919         -0.00788065  
0.92          -0.00788668  
0.921         -0.00789275  
0.922         -0.00789879  
0.923         -0.00790479  
0.924         -0.00791076  
0.925         -0.00791671  
0.926         -0.00792261  
0.927         -0.00792848  
0.928         -0.00793433  
0.929         -0.00794013  
0.93          -0.00794592  
0.931         -0.00795167  
0.932         -0.00795741  
0.933         -0.00796307  
0.934         -0.00796871  
0.935         -0.00797432  
0.936         -0.00797996  
0.937         -0.0079855   
0.938         -0.00799103  
0.939         -0.00799661  
0.94          -0.00800198  
0.941         -0.00800741  
0.942         -0.00801283  
0.943         -0.0080182   
0.944         -0.00802357  
0.945         -0.00802892  
0.946         -0.00803412  
0.947         -0.00803937  
0.948         -0.00804459  
0.949         -0.00804979  
0.95          -0.00805495  
0.951         -0.00806008  
0.952         -0.00806529  
0.953         -0.0080702   
0.954         -0.00807528  
0.955         -0.00808028  
0.956         -0.00808525  
0.957         -0.00809021  
0.958         -0.00809513  
0.959         -0.00810001  
0.96          -0.00810488  
0.961         -0.00810971  
0.962         -0.00811449  
0.963         -0.00811927  
0.964         -0.00812402  
0.965         -0.00812876  
0.966         -0.00813356  
0.967         -0.00813794  
0.968         -0.0081426   
0.969         -0.00814724  
0.97          -0.00815181  
0.971         -0.00815632  
0.972         -0.00816081  
0.973         -0.00816529  
0.974         -0.00816975  
0.975         -0.00817416  
0.976         -0.00817857  
0.977         -0.00818292  
0.978         -0.00818725  
0.979         -0.00819152  
0.98          -0.00819583  
0.981         -0.00820006  
0.982         -0.00820428  
0.983         -0.00820849  
0.984         -0.00821267  
0.985         -0.00821676  
0.986         -0.00822087  
0.987         -0.00822497  
0.988         -0.00822896  
0.989         -0.00823297  
0.99          -0.00823697  
0.991         -0.00824093  
0.992         -0.00824488  
0.993         -0.00824877  
0.994         -0.0082527   
0.995         -0.00825654  
0.996         -0.00826034  
0.997         -0.00826415  
0.998         -0.00826793  
0.999         -0.00827171  
1             -0.00827537  
1.001         -0.00827903  
1.002         -0.00828269  
1.003         -0.00828633  
1.004         -0.00829005  
1.005         -0.0082935   
1.006         -0.00829705  
1.007         -0.00830058  
1.008         -0.00830412  
1.009         -0.00830757  
1.01          -0.00831101  
1.011         -0.00831443  
1.012         -0.00831783  
1.013         -0.00832119  
1.014         -0.00832452  
1.015         -0.00832786  
1.016         -0.00833114  
1.017         -0.0083344   
1.018         -0.00833763  
1.019         -0.00834085  
1.02          -0.00834404  
1.021         -0.0083472   
1.022         -0.00835033  
1.023         -0.00835344  
1.024         -0.00835653  
1.025         -0.0083596   
1.026         -0.00836271  
1.027         -0.00836562  
1.028         -0.00836861  
1.029         -0.00837152  
1.03          -0.00837444  
1.031         -0.00837735  
1.032         -0.00838024  
1.033         -0.00838307  
1.034         -0.0083859   
1.035         -0.00838873  
1.036         -0.00839153  
1.037         -0.00839433  
1.038         -0.00839701  
1.039         -0.0083997   
1.04          -0.00840239  
1.041         -0.00840507  
1.042         -0.00840771  
1.043         -0.0084103   
1.044         -0.00841289  
1.045         -0.00841545  
1.046         -0.00841799  
1.047         -0.0084205   
1.048         -0.00842298  
1.049         -0.00842547  
1.05          -0.00842792  
1.051         -0.00843034  
1.052         -0.00843273  
1.053         -0.0084351   
1.054         -0.00843754  
1.055         -0.00843974  
1.056         -0.00844204  
1.057         -0.00844432  
1.058         -0.00844659  
1.059         -0.00844882  
1.06          -0.00845103  
1.061         -0.00845323  
1.062         -0.00845539  
1.063         -0.00845754  
1.064         -0.00845967  
1.065         -0.00846173  
1.066         -0.00846384  
1.067         -0.00846589  
1.068         -0.00846793  
1.069         -0.00846994  