# Probe 0 (0.5 0.5 0.05)
# Time        0            
0.001         (0.290754 5.80621e-08 0)
0.002         (0.466798 8.11589e-08 0)
0.003         (0.577109 9.95095e-08 0)
0.004         (0.648943 1.1187e-07 0)
0.005         (0.697695 1.22337e-07 0)
0.006         (0.732208 1.28007e-07 0)
0.007         (0.757659 1.33222e-07 0)
0.008         (0.777145 1.37686e-07 0)
0.009         (0.792567 1.41094e-07 0)
0.01          (0.805123 1.44688e-07 0)
0.011         (0.815591 1.47253e-07 0)
0.012         (0.824491 1.50048e-07 0)
0.013         (0.832183 1.53735e-07 0)
0.014         (0.838918 1.56084e-07 0)
0.015         (0.844884 1.602e-07 0)
0.016         (0.850218 1.63362e-07 0)
0.017         (0.855026 1.67546e-07 0)
0.018         (0.859388 1.71429e-07 0)
0.019         (0.863372 1.75329e-07 0)
0.02          (0.867029 1.7915e-07 0)
0.021         (0.870401 1.83965e-07 0)
0.022         (0.873525 1.88353e-07 0)
0.023         (0.876429 1.92511e-07 0)
0.024         (0.879138 1.96861e-07 0)
0.025         (0.881673 2.00586e-07 0)
0.026         (0.884052 2.05126e-07 0)
0.027         (0.886291 2.09416e-07 0)
0.028         (0.888402 2.13765e-07 0)
0.029         (0.890397 2.18198e-07 0)
0.03          (0.892287 2.22711e-07 0)
0.031         (0.894081 2.27305e-07 0)
0.032         (0.895786 2.3198e-07 0)
0.033         (0.897409 2.36601e-07 0)
0.034         (0.898958 2.41434e-07 0)
0.035         (0.900436 2.46244e-07 0)
0.036         (0.901851 2.50922e-07 0)
0.037         (0.903205 2.55745e-07 0)
0.038         (0.904504 2.60473e-07 0)
0.039         (0.90575 2.65345e-07 0)
0.04          (0.906948 2.70054e-07 0)
0.041         (0.908101 2.74876e-07 0)
0.042         (0.90921 2.79679e-07 0)
0.043         (0.91028 2.84506e-07 0)
0.044         (0.911311 2.89432e-07 0)
0.045         (0.912307 2.94336e-07 0)
0.046         (0.913269 2.99322e-07 0)
0.047         (0.9142 3.04306e-07 0)
0.048         (0.9151 3.09321e-07 0)
0.049         (0.915972 3.14316e-07 0)
0.05          (0.916817 3.19371e-07 0)
0.051         (0.917636 3.24409e-07 0)
0.052         (0.918431 3.29553e-07 0)
0.053         (0.919203 3.34664e-07 0)
0.054         (0.919953 3.39819e-07 0)
0.055         (0.920681 3.44885e-07 0)
0.056         (0.92139 3.5008e-07 0)
0.057         (0.922079 3.55176e-07 0)
0.058         (0.92275 3.60373e-07 0)
0.059         (0.923403 3.65519e-07 0)
0.06          (0.92404 3.70766e-07 0)
0.061         (0.924661 3.75937e-07 0)
0.062         (0.925266 3.81203e-07 0)
0.063         (0.925856 3.86443e-07 0)
0.064         (0.926432 3.91731e-07 0)
0.065         (0.926995 3.97006e-07 0)
0.066         (0.927544 4.02307e-07 0)
0.067         (0.928081 4.07644e-07 0)
0.068         (0.928606 4.12976e-07 0)
0.069         (0.929119 4.18299e-07 0)
0.07          (0.929621 4.23688e-07 0)
0.071         (0.930112 4.29039e-07 0)
0.072         (0.930592 4.34468e-07 0)
0.073         (0.931062 4.39849e-07 0)
0.074         (0.931523 4.45308e-07 0)
0.075         (0.931974 4.50722e-07 0)
0.076         (0.932416 4.56194e-07 0)
0.077         (0.93285 4.61601e-07 0)
0.078         (0.933274 4.67105e-07 0)
0.079         (0.933691 4.72611e-07 0)
0.08          (0.934099 4.78121e-07 0)
0.081         (0.9345 4.83656e-07 0)
0.082         (0.934894 4.89176e-07 0)
0.083         (0.93528 4.94753e-07 0)
0.084         (0.935659 5.00314e-07 0)
0.085         (0.936031 5.05936e-07 0)
0.086         (0.936397 5.11515e-07 0)
0.087         (0.936756 5.17056e-07 0)
0.088         (0.937109 5.22733e-07 0)
0.089         (0.937455 5.28428e-07 0)
0.09          (0.937796 5.34062e-07 0)
0.091         (0.938132 5.3978e-07 0)
0.092         (0.938461 5.45465e-07 0)
0.093         (0.938786 5.51212e-07 0)
0.094         (0.939104 5.5691e-07 0)
0.095         (0.939418 5.62645e-07 0)
0.096         (0.939727 5.68393e-07 0)
0.097         (0.940031 5.74144e-07 0)
0.098         (0.94033 5.79888e-07 0)
0.099         (0.940625 5.85691e-07 0)
0.1           (0.940915 5.91472e-07 0)
0.101         (0.941201 5.97269e-07 0)
0.102         (0.941482 6.03071e-07 0)
0.103         (0.941759 6.08922e-07 0)
0.104         (0.942033 6.1477e-07 0)
0.105         (0.942302 6.20663e-07 0)
0.106         (0.942567 6.26462e-07 0)
0.107         (0.942829 6.32394e-07 0)
0.108         (0.943087 6.3824e-07 0)
0.109         (0.943341 6.4415e-07 0)
0.11          (0.943592 6.5013e-07 0)
0.111         (0.943839 6.56119e-07 0)
0.112         (0.944083 6.62108e-07 0)
0.113         (0.944323 6.68091e-07 0)
0.114         (0.944561 6.74082e-07 0)
0.115         (0.944795 6.80104e-07 0)
0.116         (0.945026 6.861e-07 0)
0.117         (0.945254 6.92145e-07 0)
0.118         (0.945479 6.98177e-07 0)
0.119         (0.945702 7.04257e-07 0)
0.12          (0.945921 7.10363e-07 0)
0.121         (0.946138 7.16465e-07 0)
0.122         (0.946352 7.22592e-07 0)
0.123         (0.946563 7.28575e-07 0)
0.124         (0.946772 7.34728e-07 0)
0.125         (0.946978 7.40911e-07 0)
0.126         (0.947182 7.47167e-07 0)
0.127         (0.947383 7.53269e-07 0)
0.128         (0.947582 7.59441e-07 0)
0.129         (0.947778 7.65563e-07 0)
0.13          (0.947972 7.71856e-07 0)
0.131         (0.948164 7.78075e-07 0)
0.132         (0.948354 7.8436e-07 0)
0.133         (0.948542 7.90603e-07 0)
0.134         (0.948727 7.96912e-07 0)
0.135         (0.94891 8.03199e-07 0)
0.136         (0.949091 8.09503e-07 0)
0.137         (0.949271 8.15812e-07 0)
0.138         (0.949448 8.22132e-07 0)
0.139         (0.949623 8.28491e-07 0)
0.14          (0.949796 8.3484e-07 0)
0.141         (0.949968 8.412e-07 0)
0.142         (0.950138 8.47593e-07 0)
0.143         (0.950305 8.53971e-07 0)
0.144         (0.950471 8.60383e-07 0)
0.145         (0.950636 8.66806e-07 0)
0.146         (0.950798 8.73145e-07 0)
0.147         (0.950959 8.7962e-07 0)
0.148         (0.951118 8.86073e-07 0)
0.149         (0.951276 8.92581e-07 0)
0.15          (0.951432 8.99061e-07 0)
0.151         (0.951586 9.05544e-07 0)
0.152         (0.951739 9.1205e-07 0)
0.153         (0.951891 9.18581e-07 0)
0.154         (0.95204 9.25138e-07 0)
0.155         (0.952189 9.31686e-07 0)
0.156         (0.952336 9.38271e-07 0)
0.157         (0.952481 9.44857e-07 0)
0.158         (0.952625 9.51465e-07 0)
0.159         (0.952768 9.58064e-07 0)
0.16          (0.952909 9.64725e-07 0)
0.161         (0.953049 9.71367e-07 0)
0.162         (0.953188 9.78058e-07 0)
0.163         (0.953325 9.84721e-07 0)
0.164         (0.953461 9.91416e-07 0)
0.165         (0.953596 9.98222e-07 0)
0.166         (0.95373 1.00486e-06 0)
0.167         (0.953862 1.01155e-06 0)
0.168         (0.953993 1.01829e-06 0)
0.169         (0.954123 1.02509e-06 0)
0.17          (0.954252 1.03186e-06 0)
0.171         (0.954379 1.0387e-06 0)
0.172         (0.954506 1.04551e-06 0)
0.173         (0.954631 1.05235e-06 0)
0.174         (0.954756 1.05916e-06 0)
0.175         (0.954879 1.06596e-06 0)
0.176         (0.955001 1.07282e-06 0)
0.177         (0.955122 1.07964e-06 0)
0.178         (0.955242 1.08655e-06 0)
0.179         (0.955361 1.09348e-06 0)
0.18          (0.955479 1.10039e-06 0)
0.181         (0.955596 1.10738e-06 0)
0.182         (0.955712 1.11445e-06 0)
0.183         (0.955827 1.12136e-06 0)
0.184         (0.955941 1.12831e-06 0)
0.185         (0.956054 1.13528e-06 0)
0.186         (0.956166 1.14233e-06 0)
0.187         (0.956277 1.14932e-06 0)
0.188         (0.956388 1.15639e-06 0)
0.189         (0.956497 1.16343e-06 0)
0.19          (0.956606 1.17051e-06 0)
0.191         (0.956714 1.17756e-06 0)
0.192         (0.95682 1.18464e-06 0)
0.193         (0.956926 1.19176e-06 0)
0.194         (0.957032 1.19894e-06 0)
0.195         (0.957136 1.20607e-06 0)
0.196         (0.957239 1.21327e-06 0)
0.197         (0.957342 1.22043e-06 0)
0.198         (0.957444 1.22762e-06 0)
0.199         (0.957545 1.23481e-06 0)
0.2           (0.957645 1.24202e-06 0)
0.201         (0.957745 1.2493e-06 0)
0.202         (0.957844 1.25651e-06 0)
0.203         (0.957942 1.26375e-06 0)
0.204         (0.958039 1.27098e-06 0)
0.205         (0.958136 1.27827e-06 0)
0.206         (0.958232 1.2855e-06 0)
0.207         (0.958327 1.29282e-06 0)
0.208         (0.958421 1.30013e-06 0)
0.209         (0.958515 1.30743e-06 0)
0.21          (0.958608 1.31481e-06 0)
0.211         (0.9587 1.32216e-06 0)
0.212         (0.958792 1.32956e-06 0)
0.213         (0.958883 1.33693e-06 0)
0.214         (0.958974 1.34436e-06 0)
0.215         (0.959063 1.35178e-06 0)
0.216         (0.959152 1.35922e-06 0)
0.217         (0.959241 1.36671e-06 0)
0.218         (0.959329 1.37411e-06 0)
0.219         (0.959416 1.38162e-06 0)
0.22          (0.959503 1.38906e-06 0)
0.221         (0.959589 1.39653e-06 0)
0.222         (0.959674 1.40403e-06 0)
0.223         (0.959759 1.41155e-06 0)
0.224         (0.959843 1.4191e-06 0)
0.225         (0.959927 1.42666e-06 0)
0.226         (0.96001 1.43421e-06 0)
0.227         (0.960092 1.4418e-06 0)
0.228         (0.960174 1.4494e-06 0)
0.229         (0.960256 1.457e-06 0)
0.23          (0.960337 1.46466e-06 0)
0.231         (0.960417 1.47227e-06 0)
0.232         (0.960497 1.47991e-06 0)
0.233         (0.960576 1.48759e-06 0)
0.234         (0.960655 1.49528e-06 0)
0.235         (0.960733 1.50297e-06 0)
0.236         (0.960811 1.51067e-06 0)
0.237         (0.960888 1.51835e-06 0)
0.238         (0.960965 1.52605e-06 0)
0.239         (0.961041 1.53384e-06 0)
0.24          (0.961116 1.54156e-06 0)
0.241         (0.961192 1.54938e-06 0)
0.242         (0.961266 1.5572e-06 0)
0.243         (0.961341 1.56504e-06 0)
0.244         (0.961414 1.57287e-06 0)
0.245         (0.961488 1.58069e-06 0)
0.246         (0.961561 1.58855e-06 0)
0.247         (0.961633 1.5964e-06 0)
0.248         (0.961705 1.6043e-06 0)
0.249         (0.961776 1.61218e-06 0)
0.25          (0.961847 1.6201e-06 0)
0.251         (0.961918 1.62805e-06 0)
0.252         (0.961988 1.63601e-06 0)
0.253         (0.962058 1.64394e-06 0)
0.254         (0.962127 1.65192e-06 0)
0.255         (0.962196 1.6599e-06 0)
0.256         (0.962265 1.66791e-06 0)
0.257         (0.962333 1.67598e-06 0)
0.258         (0.9624 1.68397e-06 0)
0.259         (0.962468 1.69196e-06 0)
0.26          (0.962534 1.69999e-06 0)
0.261         (0.962601 1.7081e-06 0)
0.262         (0.962667 1.71615e-06 0)
0.263         (0.962733 1.72426e-06 0)
0.264         (0.962798 1.73234e-06 0)
0.265         (0.962863 1.74047e-06 0)
0.266         (0.962927 1.74857e-06 0)
0.267         (0.962991 1.75674e-06 0)
0.268         (0.963055 1.76491e-06 0)
0.269         (0.963118 1.77309e-06 0)
0.27          (0.963181 1.78125e-06 0)
0.271         (0.963244 1.78946e-06 0)
0.272         (0.963306 1.79766e-06 0)
0.273         (0.963368 1.8059e-06 0)
0.274         (0.96343 1.81412e-06 0)
0.275         (0.963491 1.82238e-06 0)
0.276         (0.963552 1.83063e-06 0)
0.277         (0.963612 1.83892e-06 0)
0.278         (0.963673 1.8472e-06 0)
0.279         (0.963732 1.85553e-06 0)
0.28          (0.963792 1.86383e-06 0)
0.281         (0.963851 1.87219e-06 0)
0.282         (0.96391 1.88019e-06 0)
0.283         (0.963968 1.88826e-06 0)
0.284         (0.964026 1.89644e-06 0)
0.285         (0.964084 1.90467e-06 0)
0.286         (0.964141 1.91293e-06 0)
0.287         (0.964198 1.92125e-06 0)
0.288         (0.964255 1.92957e-06 0)
0.289         (0.964312 1.93793e-06 0)
0.29          (0.964368 1.94631e-06 0)
0.291         (0.964424 1.95474e-06 0)
0.292         (0.964479 1.96314e-06 0)
0.293         (0.964535 1.97159e-06 0)
0.294         (0.964589 1.98005e-06 0)
0.295         (0.964644 1.98849e-06 0)
0.296         (0.964699 1.99699e-06 0)
0.297         (0.964753 2.00548e-06 0)
0.298         (0.964806 2.014e-06 0)
0.299         (0.96486 2.02254e-06 0)
0.3           (0.964913 2.03107e-06 0)
0.301         (0.964966 2.03963e-06 0)
0.302         (0.965019 2.04822e-06 0)
0.303         (0.965071 2.05682e-06 0)
0.304         (0.965124 2.06539e-06 0)
0.305         (0.965175 2.07402e-06 0)
0.306         (0.965227 2.08265e-06 0)
0.307         (0.965278 2.09128e-06 0)
0.308         (0.96533 2.09996e-06 0)
0.309         (0.96538 2.10864e-06 0)
0.31          (0.965431 2.11734e-06 0)
0.311         (0.965481 2.12605e-06 0)
0.312         (0.965531 2.13478e-06 0)
0.313         (0.965581 2.14349e-06 0)
0.314         (0.965631 2.15225e-06 0)
0.315         (0.96568 2.161e-06 0)
0.316         (0.965729 2.16977e-06 0)
0.317         (0.965778 2.17854e-06 0)
0.318         (0.965826 2.18734e-06 0)
0.319         (0.965875 2.19618e-06 0)
0.32          (0.965923 2.205e-06 0)
0.321         (0.965971 2.21385e-06 0)
0.322         (0.966018 2.22271e-06 0)
0.323         (0.966066 2.23157e-06 0)
0.324         (0.966113 2.24044e-06 0)
0.325         (0.96616 2.24934e-06 0)
0.326         (0.966207 2.25824e-06 0)
0.327         (0.966253 2.26718e-06 0)
0.328         (0.966299 2.27612e-06 0)
0.329         (0.966345 2.28504e-06 0)
0.33          (0.966391 2.29401e-06 0)
0.331         (0.966437 2.303e-06 0)
0.332         (0.966482 2.31195e-06 0)
0.333         (0.966527 2.32093e-06 0)
0.334         (0.966572 2.33e-06 0)
0.335         (0.966617 2.33898e-06 0)
0.336         (0.966661 2.34801e-06 0)
0.337         (0.966706 2.35704e-06 0)
0.338         (0.96675 2.36609e-06 0)
0.339         (0.966793 2.37516e-06 0)
0.34          (0.966837 2.38424e-06 0)
0.341         (0.966881 2.39333e-06 0)
0.342         (0.966924 2.40247e-06 0)
0.343         (0.966967 2.41161e-06 0)
0.344         (0.96701 2.42075e-06 0)
0.345         (0.967052 2.42987e-06 0)
0.346         (0.967095 2.43902e-06 0)
0.347         (0.967137 2.4482e-06 0)
0.348         (0.967179 2.45739e-06 0)
0.349         (0.967221 2.46655e-06 0)
0.35          (0.967263 2.47575e-06 0)
0.351         (0.967304 2.48496e-06 0)
0.352         (0.967346 2.49422e-06 0)
0.353         (0.967387 2.50346e-06 0)
0.354         (0.967428 2.51274e-06 0)
0.355         (0.967468 2.52203e-06 0)
0.356         (0.967509 2.53128e-06 0)
0.357         (0.967549 2.54056e-06 0)
0.358         (0.967589 2.54984e-06 0)
0.359         (0.967629 2.55919e-06 0)
0.36          (0.967669 2.5685e-06 0)
0.361         (0.967709 2.57786e-06 0)
0.362         (0.967748 2.58721e-06 0)
0.363         (0.967788 2.59655e-06 0)
0.364         (0.967827 2.60593e-06 0)
0.365         (0.967866 2.61531e-06 0)
0.366         (0.967904 2.6247e-06 0)
0.367         (0.967943 2.63415e-06 0)
0.368         (0.967981 2.64352e-06 0)
0.369         (0.96802 2.65294e-06 0)
0.37          (0.968058 2.6624e-06 0)
0.371         (0.968096 2.67187e-06 0)
0.372         (0.968133 2.68132e-06 0)
0.373         (0.968171 2.69081e-06 0)
0.374         (0.968208 2.70028e-06 0)
0.375         (0.968246 2.70978e-06 0)
0.376         (0.968283 2.71929e-06 0)
0.377         (0.96832 2.72883e-06 0)
0.378         (0.968357 2.73838e-06 0)
0.379         (0.968393 2.74792e-06 0)
0.38          (0.96843 2.75747e-06 0)
0.381         (0.968466 2.76706e-06 0)
0.382         (0.968502 2.77663e-06 0)
0.383         (0.968538 2.7862e-06 0)
0.384         (0.968574 2.79582e-06 0)
0.385         (0.96861 2.80545e-06 0)
0.386         (0.968645 2.81507e-06 0)
0.387         (0.968681 2.8247e-06 0)
0.388         (0.968716 2.83432e-06 0)
0.389         (0.968751 2.84398e-06 0)
0.39          (0.968786 2.85367e-06 0)
0.391         (0.968821 2.86334e-06 0)
0.392         (0.968855 2.87304e-06 0)
0.393         (0.96889 2.88276e-06 0)
0.394         (0.968924 2.89246e-06 0)
0.395         (0.968958 2.90217e-06 0)
0.396         (0.968993 2.91192e-06 0)
0.397         (0.969026 2.92166e-06 0)
0.398         (0.96906 2.93143e-06 0)
0.399         (0.969094 2.9412e-06 0)
0.4           (0.969127 2.95098e-06 0)
0.401         (0.969161 2.96076e-06 0)
0.402         (0.969194 2.97059e-06 0)
0.403         (0.969227 2.98038e-06 0)
0.404         (0.96926 2.9902e-06 0)
0.405         (0.969293 3.00001e-06 0)
0.406         (0.969326 3.00985e-06 0)
0.407         (0.969358 3.01968e-06 0)
0.408         (0.969391 3.02954e-06 0)
0.409         (0.969423 3.03938e-06 0)
0.41          (0.969455 3.04925e-06 0)
0.411         (0.969487 3.05916e-06 0)
0.412         (0.969519 3.06907e-06 0)
0.413         (0.969551 3.07899e-06 0)
0.414         (0.969582 3.08889e-06 0)
0.415         (0.969614 3.09882e-06 0)
0.416         (0.969645 3.10878e-06 0)
0.417         (0.969677 3.11872e-06 0)
0.418         (0.969708 3.12867e-06 0)
0.419         (0.969739 3.13863e-06 0)
0.42          (0.96977 3.14861e-06 0)
0.421         (0.9698 3.15861e-06 0)
0.422         (0.969831 3.16861e-06 0)
0.423         (0.969862 3.17863e-06 0)
0.424         (0.969892 3.18864e-06 0)
0.425         (0.969922 3.19868e-06 0)
0.426         (0.969952 3.20871e-06 0)
0.427         (0.969983 3.21878e-06 0)
0.428         (0.970012 3.22885e-06 0)
0.429         (0.970042 3.23894e-06 0)
0.43          (0.970072 3.24899e-06 0)
0.431         (0.970102 3.25908e-06 0)
0.432         (0.970131 3.2692e-06 0)
0.433         (0.97016 3.27933e-06 0)
0.434         (0.97019 3.28944e-06 0)
0.435         (0.970219 3.29955e-06 0)
0.436         (0.970248 3.3097e-06 0)
0.437         (0.970277 3.31986e-06 0)
0.438         (0.970305 3.33001e-06 0)
0.439         (0.970334 3.34017e-06 0)
0.44          (0.970363 3.35036e-06 0)
0.441         (0.970391 3.36053e-06 0)
0.442         (0.97042 3.37072e-06 0)
0.443         (0.970448 3.38095e-06 0)
0.444         (0.970476 3.39115e-06 0)
0.445         (0.970504 3.40139e-06 0)
0.446         (0.970532 3.41163e-06 0)
0.447         (0.97056 3.42188e-06 0)
0.448         (0.970587 3.43214e-06 0)
0.449         (0.970615 3.44241e-06 0)
0.45          (0.970642 3.4527e-06 0)
0.451         (0.97067 3.46297e-06 0)
0.452         (0.970697 3.47328e-06 0)
0.453         (0.970724 3.48358e-06 0)
0.454         (0.970751 3.4939e-06 0)
0.455         (0.970778 3.50422e-06 0)
0.456         (0.970805 3.51458e-06 0)
0.457         (0.970832 3.5249e-06 0)
0.458         (0.970859 3.53524e-06 0)
0.459         (0.970885 3.54561e-06 0)
0.46          (0.970912 3.55598e-06 0)
0.461         (0.970938 3.56637e-06 0)
0.462         (0.970964 3.57673e-06 0)
0.463         (0.970991 3.58713e-06 0)
0.464         (0.971017 3.59751e-06 0)
0.465         (0.971043 3.60794e-06 0)
0.466         (0.971069 3.61835e-06 0)
0.467         (0.971094 3.6288e-06 0)
0.468         (0.97112 3.63923e-06 0)
0.469         (0.971146 3.64968e-06 0)
0.47          (0.971171 3.66014e-06 0)
0.471         (0.971197 3.6706e-06 0)
0.472         (0.971222 3.68108e-06 0)
0.473         (0.971247 3.69158e-06 0)
0.474         (0.971272 3.70205e-06 0)
0.475         (0.971297 3.71256e-06 0)
0.476         (0.971322 3.72306e-06 0)
0.477         (0.971347 3.73363e-06 0)
0.478         (0.971372 3.74414e-06 0)
0.479         (0.971397 3.75462e-06 0)
0.48          (0.971421 3.76521e-06 0)
0.481         (0.971446 3.77572e-06 0)
0.482         (0.97147 3.78626e-06 0)
0.483         (0.971494 3.79681e-06 0)
0.484         (0.971519 3.80738e-06 0)
0.485         (0.971543 3.81801e-06 0)
0.486         (0.971567 3.82858e-06 0)
0.487         (0.971591 3.83915e-06 0)
0.488         (0.971615 3.84976e-06 0)
0.489         (0.971639 3.86036e-06 0)
0.49          (0.971662 3.871e-06 0)
0.491         (0.971686 3.88162e-06 0)
0.492         (0.971709 3.89228e-06 0)
0.493         (0.971733 3.90295e-06 0)
0.494         (0.971756 3.9136e-06 0)
0.495         (0.97178 3.92428e-06 0)
0.496         (0.971803 3.93494e-06 0)
0.497         (0.971826 3.94563e-06 0)
0.498         (0.971849 3.95631e-06 0)
0.499         (0.971872 3.96702e-06 0)
0.5           (0.971895 3.97773e-06 0)
0.501         (0.971918 3.98847e-06 0)
0.502         (0.97194 3.9992e-06 0)
0.503         (0.971963 4.00992e-06 0)
0.504         (0.971986 4.02068e-06 0)
0.505         (0.972008 4.03142e-06 0)
0.506         (0.972031 4.04216e-06 0)
0.507         (0.972053 4.05293e-06 0)
0.508         (0.972075 4.06372e-06 0)
0.509         (0.972097 4.0745e-06 0)
0.51          (0.972119 4.08526e-06 0)
0.511         (0.972141 4.09606e-06 0)
0.512         (0.972163 4.10685e-06 0)
0.513         (0.972185 4.11765e-06 0)
0.514         (0.972207 4.12848e-06 0)
0.515         (0.972229 4.13932e-06 0)
0.516         (0.97225 4.15013e-06 0)
0.517         (0.972272 4.16099e-06 0)
0.518         (0.972293 4.17185e-06 0)
0.519         (0.972315 4.18272e-06 0)
0.52          (0.972336 4.19357e-06 0)
0.521         (0.972357 4.20446e-06 0)
0.522         (0.972379 4.21533e-06 0)
0.523         (0.9724 4.22623e-06 0)
0.524         (0.972421 4.2371e-06 0)
0.525         (0.972442 4.24802e-06 0)
0.526         (0.972463 4.25893e-06 0)
0.527         (0.972484 4.26989e-06 0)
0.528         (0.972504 4.2808e-06 0)
0.529         (0.972525 4.29173e-06 0)
0.53          (0.972546 4.30266e-06 0)
0.531         (0.972566 4.31359e-06 0)
0.532         (0.972587 4.32456e-06 0)
0.533         (0.972607 4.33551e-06 0)
0.534         (0.972627 4.34648e-06 0)
0.535         (0.972648 4.35749e-06 0)
0.536         (0.972668 4.36847e-06 0)
0.537         (0.972688 4.37949e-06 0)
0.538         (0.972708 4.39048e-06 0)
0.539         (0.972728 4.4015e-06 0)
0.54          (0.972748 4.41252e-06 0)
0.541         (0.972768 4.42356e-06 0)
0.542         (0.972788 4.43458e-06 0)
0.543         (0.972807 4.44562e-06 0)
0.544         (0.972827 4.45668e-06 0)
0.545         (0.972847 4.46775e-06 0)
0.546         (0.972866 4.4788e-06 0)
0.547         (0.972886 4.48988e-06 0)
0.548         (0.972905 4.50094e-06 0)
0.549         (0.972924 4.51201e-06 0)
0.55          (0.972944 4.52309e-06 0)
0.551         (0.972963 4.53417e-06 0)
0.552         (0.972982 4.54526e-06 0)
0.553         (0.973001 4.55637e-06 0)
0.554         (0.97302 4.56751e-06 0)
0.555         (0.973039 4.57862e-06 0)
0.556         (0.973058 4.58973e-06 0)
0.557         (0.973077 4.60085e-06 0)
0.558         (0.973095 4.61201e-06 0)
0.559         (0.973114 4.62314e-06 0)
0.56          (0.973133 4.63432e-06 0)
0.561         (0.973151 4.64548e-06 0)
0.562         (0.97317 4.65665e-06 0)
0.563         (0.973188 4.66781e-06 0)
0.564         (0.973207 4.67897e-06 0)
0.565         (0.973225 4.69017e-06 0)
0.566         (0.973243 4.70138e-06 0)
0.567         (0.973261 4.71261e-06 0)
0.568         (0.97328 4.7238e-06 0)
0.569         (0.973298 4.73501e-06 0)
0.57          (0.973316 4.74624e-06 0)
0.571         (0.973334 4.75746e-06 0)
0.572         (0.973352 4.7687e-06 0)
0.573         (0.973369 4.77994e-06 0)
0.574         (0.973387 4.79118e-06 0)
0.575         (0.973405 4.80244e-06 0)
0.576         (0.973423 4.81369e-06 0)
0.577         (0.97344 4.82496e-06 0)
0.578         (0.973458 4.83625e-06 0)
0.579         (0.973475 4.84753e-06 0)
0.58          (0.973493 4.85879e-06 0)
0.581         (0.97351 4.87009e-06 0)
0.582         (0.973527 4.8814e-06 0)
0.583         (0.973545 4.89273e-06 0)
0.584         (0.973562 4.90407e-06 0)
0.585         (0.973579 4.91538e-06 0)
0.586         (0.973596 4.9267e-06 0)
0.587         (0.973613 4.93803e-06 0)
0.588         (0.97363 4.94937e-06 0)
0.589         (0.973647 4.96072e-06 0)
0.59          (0.973664 4.97206e-06 0)
0.591         (0.973681 4.98344e-06 0)
0.592         (0.973698 4.99478e-06 0)
0.593         (0.973714 5.00619e-06 0)
0.594         (0.973731 5.01755e-06 0)
0.595         (0.973748 5.02895e-06 0)
0.596         (0.973764 5.04033e-06 0)
0.597         (0.973781 5.05172e-06 0)
0.598         (0.973797 5.0631e-06 0)
0.599         (0.973813 5.07455e-06 0)
0.6           (0.97383 5.08593e-06 0)
0.601         (0.973846 5.09738e-06 0)
0.602         (0.973862 5.10879e-06 0)
0.603         (0.973878 5.12023e-06 0)
0.604         (0.973895 5.13167e-06 0)
0.605         (0.973911 5.14312e-06 0)
0.606         (0.973927 5.15454e-06 0)
0.607         (0.973943 5.166e-06 0)
0.608         (0.973959 5.17748e-06 0)
0.609         (0.973975 5.18894e-06 0)
0.61          (0.97399 5.20042e-06 0)
0.611         (0.974006 5.21191e-06 0)
0.612         (0.974022 5.22341e-06 0)
0.613         (0.974038 5.23491e-06 0)
0.614         (0.974053 5.24642e-06 0)
0.615         (0.974069 5.25791e-06 0)
0.616         (0.974084 5.26942e-06 0)
0.617         (0.9741 5.28096e-06 0)
0.618         (0.974115 5.29248e-06 0)
0.619         (0.974131 5.30401e-06 0)
0.62          (0.974146 5.31556e-06 0)
0.621         (0.974161 5.32707e-06 0)
0.622         (0.974176 5.3386e-06 0)
0.623         (0.974192 5.35017e-06 0)
0.624         (0.974207 5.36173e-06 0)
0.625         (0.974222 5.37331e-06 0)
0.626         (0.974237 5.38488e-06 0)
0.627         (0.974252 5.39646e-06 0)
0.628         (0.974267 5.40804e-06 0)
0.629         (0.974282 5.41964e-06 0)
0.63          (0.974296 5.43122e-06 0)
0.631         (0.974311 5.44283e-06 0)
0.632         (0.974326 5.45446e-06 0)
0.633         (0.974341 5.46605e-06 0)
0.634         (0.974355 5.47768e-06 0)
0.635         (0.97437 5.48933e-06 0)
0.636         (0.974385 5.50093e-06 0)
0.637         (0.974399 5.51257e-06 0)
0.638         (0.974414 5.52419e-06 0)
0.639         (0.974428 5.53584e-06 0)
0.64          (0.974442 5.5475e-06 0)
0.641         (0.974457 5.55915e-06 0)
0.642         (0.974471 5.57082e-06 0)
0.643         (0.974485 5.5825e-06 0)
0.644         (0.9745 5.59418e-06 0)
0.645         (0.974514 5.60585e-06 0)
0.646         (0.974528 5.61754e-06 0)
0.647         (0.974542 5.62922e-06 0)
0.648         (0.974556 5.64091e-06 0)
0.649         (0.97457 5.65262e-06 0)
0.65          (0.974584 5.66432e-06 0)
0.651         (0.974598 5.67602e-06 0)
0.652         (0.974612 5.68774e-06 0)
0.653         (0.974625 5.69947e-06 0)
0.654         (0.974639 5.71122e-06 0)
0.655         (0.974653 5.72297e-06 0)
0.656         (0.974667 5.73471e-06 0)
0.657         (0.97468 5.74646e-06 0)
0.658         (0.974694 5.75819e-06 0)
0.659         (0.974707 5.76996e-06 0)
0.66          (0.974721 5.78174e-06 0)
0.661         (0.974734 5.7935e-06 0)
0.662         (0.974748 5.80528e-06 0)
0.663         (0.974761 5.81706e-06 0)
0.664         (0.974774 5.82882e-06 0)
0.665         (0.974788 5.84065e-06 0)
0.666         (0.974801 5.85244e-06 0)
0.667         (0.974814 5.86424e-06 0)
0.668         (0.974827 5.87604e-06 0)
0.669         (0.974841 5.88788e-06 0)
0.67          (0.974854 5.89968e-06 0)
0.671         (0.974867 5.9115e-06 0)
0.672         (0.97488 5.92336e-06 0)
0.673         (0.974893 5.93519e-06 0)
0.674         (0.974906 5.94704e-06 0)
0.675         (0.974919 5.95887e-06 0)
0.676         (0.974931 5.97073e-06 0)
0.677         (0.974944 5.98257e-06 0)
0.678         (0.974957 5.99444e-06 0)
0.679         (0.97497 6.00628e-06 0)
0.68          (0.974982 6.01817e-06 0)
0.681         (0.974995 6.03004e-06 0)
0.682         (0.975008 6.04196e-06 0)
0.683         (0.97502 6.05383e-06 0)
0.684         (0.975033 6.06572e-06 0)
0.685         (0.975045 6.07762e-06 0)
0.686         (0.975058 6.08954e-06 0)
0.687         (0.97507 6.10142e-06 0)
0.688         (0.975083 6.11334e-06 0)
0.689         (0.975095 6.12526e-06 0)
0.69          (0.975107 6.13718e-06 0)
0.691         (0.97512 6.14912e-06 0)
0.692         (0.975132 6.16105e-06 0)
0.693         (0.975144 6.17299e-06 0)
0.694         (0.975156 6.18495e-06 0)
0.695         (0.975168 6.1969e-06 0)
0.696         (0.97518 6.20887e-06 0)
0.697         (0.975192 6.22082e-06 0)
0.698         (0.975204 6.2328e-06 0)
0.699         (0.975216 6.24477e-06 0)
0.7           (0.975228 6.25675e-06 0)
0.701         (0.97524 6.26873e-06 0)
0.702         (0.975252 6.28072e-06 0)
0.703         (0.975264 6.29272e-06 0)
0.704         (0.975276 6.3047e-06 0)
0.705         (0.975287 6.31671e-06 0)
0.706         (0.975299 6.32872e-06 0)
0.707         (0.975311 6.34072e-06 0)
0.708         (0.975322 6.35274e-06 0)
0.709         (0.975334 6.36476e-06 0)
0.71          (0.975346 6.3768e-06 0)
0.711         (0.975357 6.38881e-06 0)
0.712         (0.975369 6.40086e-06 0)
0.713         (0.97538 6.4129e-06 0)
0.714         (0.975392 6.42494e-06 0)
0.715         (0.975403 6.43701e-06 0)
0.716         (0.975414 6.44906e-06 0)
0.717         (0.975426 6.4611e-06 0)
0.718         (0.975437 6.47318e-06 0)
0.719         (0.975448 6.48526e-06 0)
0.72          (0.975459 6.49734e-06 0)
0.721         (0.975471 6.50942e-06 0)
0.722         (0.975482 6.52151e-06 0)
0.723         (0.975493 6.53359e-06 0)
0.724         (0.975504 6.54573e-06 0)
0.725         (0.975515 6.55781e-06 0)
0.726         (0.975526 6.56994e-06 0)
0.727         (0.975537 6.58204e-06 0)
0.728         (0.975548 6.59414e-06 0)
0.729         (0.975559 6.60629e-06 0)
0.73          (0.97557 6.61842e-06 0)
0.731         (0.975581 6.63056e-06 0)
0.732         (0.975591 6.64269e-06 0)
0.733         (0.975602 6.65483e-06 0)
0.734         (0.975613 6.66697e-06 0)
0.735         (0.975624 6.67911e-06 0)
0.736         (0.975634 6.69126e-06 0)
0.737         (0.975645 6.70346e-06 0)
0.738         (0.975656 6.71561e-06 0)
0.739         (0.975666 6.72777e-06 0)
0.74          (0.975677 6.73994e-06 0)
0.741         (0.975687 6.75211e-06 0)
0.742         (0.975698 6.76429e-06 0)
0.743         (0.975708 6.77647e-06 0)
0.744         (0.975719 6.78867e-06 0)
0.745         (0.975729 6.80085e-06 0)
0.746         (0.975739 6.81307e-06 0)
0.747         (0.97575 6.82527e-06 0)
0.748         (0.97576 6.83747e-06 0)
0.749         (0.97577 6.84969e-06 0)
0.75          (0.975781 6.8619e-06 0)
0.751         (0.975791 6.87414e-06 0)
0.752         (0.975801 6.88636e-06 0)
0.753         (0.975811 6.89857e-06 0)
0.754         (0.975821 6.91085e-06 0)
0.755         (0.975831 6.92309e-06 0)
0.756         (0.975841 6.93535e-06 0)
0.757         (0.975851 6.94757e-06 0)
0.758         (0.975861 6.95985e-06 0)
0.759         (0.975871 6.97209e-06 0)
0.76          (0.975881 6.98438e-06 0)
0.761         (0.975891 6.99664e-06 0)
0.762         (0.975901 7.00892e-06 0)
0.763         (0.975911 7.02119e-06 0)
0.764         (0.975921 7.03348e-06 0)
0.765         (0.97593 7.04579e-06 0)
0.766         (0.97594 7.05808e-06 0)
0.767         (0.97595 7.07035e-06 0)
0.768         (0.97596 7.08265e-06 0)
0.769         (0.975969 7.09489e-06 0)
0.77          (0.975979 7.10723e-06 0)
0.771         (0.975988 7.11956e-06 0)
0.772         (0.975998 7.1319e-06 0)