/*--------------------------------*- C++ -*----------------------------------*\
| =========                 |                                                 |
| \\      /  F ield         | OpenFOAM: The Open Source CFD Toolbox           |
|  \\    /   O peration     | Version:  2412                                  |
|   \\  /    A nd           | Website:  www.openfoam.com                      |
|    \\/     M anipulation  |                                                 |
\*---------------------------------------------------------------------------*/
FoamFile
{
    version     2.0;
    format      ascii;
    arch        "LSB;label=32;scalar=64";
    class       volScalarField;
    location    "1.99";
    object      p;
}
// * * * * * * * * * * * * * * * * * * * * * * * * * * * * * * * * * * * * * //

dimensions      [0 2 -2 0 0 0 0];

internalField   nonuniform List<scalar> 
257400
(
0.548057
0.504012
0.423729
0.332263
0.247463
0.175423
0.11647
0.0694746
0.0310132
0.000122613
-0.0246331
-0.0457004
-0.0630838
-0.0770559
-0.0899484
-0.10048
-0.109633
-0.117563
-0.12452
-0.130861
-0.136347
-0.141016
-0.145614
-0.149344
-0.152996
-0.156094
-0.158953
-0.161395
-0.163693
-0.166046
-0.167643
-0.169573
-0.171203
-0.172468
-0.173697
-0.174791
-0.175758
-0.17674
-0.177318
-0.178202
-0.178838
-0.179196
-0.179832
-0.180153
-0.180346
-0.180617
-0.18085
-0.180897
-0.181019
-0.181084
-0.180981
-0.18095
-0.180864
-0.180767
-0.180519
-0.180229
-0.179966
-0.179808
-0.179585
-0.179082
-0.17876
-0.178468
-0.177967
-0.177486
-0.177113
-0.176681
-0.176125
-0.175546
-0.174969
-0.174465
-0.173897
-0.173269
-0.172663
-0.172098
-0.17144
-0.170757
-0.17007
-0.169427
-0.168769
-0.168019
0.524716
0.494898
0.443171
0.374506
0.298918
0.22964
0.16783
0.115255
0.0706421
0.0338427
0.00403263
-0.0211626
-0.0421669
-0.0591814
-0.074226
-0.0867908
-0.0976212
-0.106964
-0.115091
-0.122357
-0.128705
-0.134039
-0.139194
-0.143451
-0.147536
-0.151134
-0.154415
-0.157283
-0.159862
-0.162427
-0.164418
-0.166462
-0.168314
-0.169852
-0.171265
-0.172528
-0.173638
-0.174743
-0.175499
-0.176412
-0.177179
-0.177673
-0.178334
-0.178781
-0.179083
-0.179401
-0.179688
-0.179814
-0.179969
-0.180079
-0.180046
-0.180043
-0.179983
-0.179909
-0.179722
-0.179484
-0.179239
-0.179046
-0.178843
-0.178409
-0.178089
-0.177815
-0.177353
-0.176895
-0.176527
-0.176106
-0.175578
-0.175028
-0.174467
-0.17396
-0.173401
-0.172787
-0.172183
-0.171612
-0.170963
-0.170293
-0.169612
-0.168961
-0.1683
-0.167552
0.506663
0.486291
0.448283
0.395628
0.331531
0.263001
0.202401
0.148536
0.101121
0.0605485
0.0268617
-0.00153199
-0.0253393
-0.0447611
-0.0616826
-0.0758625
-0.0880285
-0.0984849
-0.107533
-0.115577
-0.122663
-0.128734
-0.134365
-0.139073
-0.143484
-0.147369
-0.150914
-0.154026
-0.156821
-0.159585
-0.161758
-0.163958
-0.165957
-0.16764
-0.16919
-0.170578
-0.171797
-0.173002
-0.173861
-0.174848
-0.175692
-0.17627
-0.176992
-0.177514
-0.177889
-0.178264
-0.178608
-0.17879
-0.17899
-0.179151
-0.179165
-0.179202
-0.179181
-0.17915
-0.179004
-0.178802
-0.178585
-0.178422
-0.178245
-0.17784
-0.177538
-0.177261
-0.176835
-0.176388
-0.176007
-0.175593
-0.175085
-0.174552
-0.174001
-0.173494
-0.172943
-0.17234
-0.171738
-0.171168
-0.170528
-0.169866
-0.169191
-0.168538
-0.167884
-0.167141
0.487907
0.473611
0.446032
0.406613
0.357739
0.299624
0.238711
0.185141
0.136519
0.0931205
0.0557523
0.0237764
-0.00340062
-0.0258606
-0.0452144
-0.0614964
-0.0754267
-0.0873626
-0.097629
-0.10667
-0.114708
-0.1215
-0.127784
-0.133177
-0.138082
-0.142423
-0.146364
-0.149846
-0.152944
-0.155958
-0.158405
-0.160804
-0.162995
-0.164876
-0.166602
-0.168152
-0.169511
-0.170843
-0.171838
-0.172913
-0.17386
-0.174542
-0.175336
-0.175944
-0.176407
-0.17685
-0.177259
-0.17751
-0.177761
-0.177975
-0.178047
-0.17813
-0.17815
-0.178158
-0.17806
-0.177903
-0.177721
-0.17758
-0.177424
-0.177073
-0.176772
-0.17652
-0.176128
-0.175705
-0.17534
-0.174947
-0.174464
-0.173954
-0.173419
-0.172925
-0.172389
-0.171802
-0.17121
-0.170649
-0.170023
-0.169373
-0.168708
-0.168061
-0.16742
-0.166689
0.467209
0.457283
0.43774
0.408695
0.370813
0.32552
0.272666
0.217376
0.169781
0.125913
0.0865088
0.0518164
0.0216052
-0.00392269
-0.0258925
-0.0445392
-0.0604959
-0.0741635
-0.0859263
-0.0962578
-0.105336
-0.113029
-0.120052
-0.126104
-0.131577
-0.13643
-0.140815
-0.144711
-0.148167
-0.151479
-0.15424
-0.156882
-0.159299
-0.161408
-0.163336
-0.165076
-0.166605
-0.168087
-0.169244
-0.170432
-0.171502
-0.172311
-0.173195
-0.173908
-0.174476
-0.175004
-0.175492
-0.175828
-0.176146
-0.176426
-0.176569
-0.17671
-0.176786
-0.176845
-0.176804
-0.176702
-0.176565
-0.176448
-0.176332
-0.17603
-0.175765
-0.175543
-0.175192
-0.174803
-0.174462
-0.174095
-0.173644
-0.173164
-0.172656
-0.172181
-0.171667
-0.171104
-0.17053
-0.169985
-0.169379
-0.168748
-0.168102
-0.167468
-0.166845
-0.166134
0.446242
0.439365
0.425557
0.40435
0.37547
0.339437
0.297704
0.251211
0.199902
0.156088
0.116554
0.0806544
0.0484531
0.0204267
-0.00397033
-0.0249741
-0.0430661
-0.0586637
-0.0721886
-0.0837303
-0.0938711
-0.102866
-0.110769
-0.117613
-0.123771
-0.129227
-0.134135
-0.138511
-0.142393
-0.146056
-0.149177
-0.152111
-0.154793
-0.157162
-0.159324
-0.161283
-0.163013
-0.164668
-0.166014
-0.167343
-0.168553
-0.169512
-0.170506
-0.17134
-0.17203
-0.172662
-0.173244
-0.173681
-0.174083
-0.174443
-0.174671
-0.174885
-0.17503
-0.175152
-0.175181
-0.175145
-0.175067
-0.174988
-0.174921
-0.174682
-0.174463
-0.174279
-0.173978
-0.173633
-0.173325
-0.172993
-0.172582
-0.172141
-0.171669
-0.171222
-0.170739
-0.170208
-0.169662
-0.169141
-0.168564
-0.167961
-0.167341
-0.166728
-0.166132
-0.165449
0.426083
0.42129
0.411494
0.39604
0.374254
0.345951
0.311639
0.272907
0.231668
0.18608
0.143846
0.107532
0.0747661
0.0453667
0.0192719
-0.00371183
-0.0238969
-0.041439
-0.0560209
-0.0692307
-0.0810408
-0.0910804
-0.099934
-0.107693
-0.114623
-0.120765
-0.126273
-0.131194
-0.135564
-0.139634
-0.143166
-0.146439
-0.149428
-0.152093
-0.154522
-0.15673
-0.158691
-0.160547
-0.162107
-0.163603
-0.164975
-0.166106
-0.167231
-0.168204
-0.169033
-0.169786
-0.170479
-0.171033
-0.171535
-0.171989
-0.172316
-0.172617
-0.172845
-0.173042
-0.173151
-0.173195
-0.173193
-0.173182
-0.173154
-0.172987
-0.172828
-0.17269
-0.172449
-0.172161
-0.171896
-0.171608
-0.171247
-0.170854
-0.170428
-0.170019
-0.169576
-0.169086
-0.168578
-0.168089
-0.167549
-0.166983
-0.166399
-0.165817
-0.165254
-0.16461
0.40716
0.403804
0.396825
0.385535
0.369126
0.347082
0.319394
0.286833
0.250885
0.213258
0.174982
0.136122
0.100352
0.069545
0.0417407
0.0177096
-0.00318273
-0.0218099
-0.0389473
-0.0537641
-0.0666162
-0.0778085
-0.0877501
-0.096478
-0.104241
-0.111133
-0.117303
-0.122823
-0.127734
-0.13226
-0.136244
-0.1399
-0.143233
-0.146228
-0.148955
-0.151437
-0.153658
-0.155738
-0.157534
-0.159223
-0.160777
-0.162099
-0.163377
-0.164504
-0.165488
-0.166379
-0.167198
-0.167882
-0.1685
-0.16906
-0.1695
-0.1699
-0.170224
-0.170508
-0.170709
-0.170843
-0.170924
-0.170981
-0.171019
-0.170936
-0.170845
-0.170765
-0.170593
-0.170371
-0.17016
-0.169925
-0.169623
-0.169288
-0.168916
-0.168554
-0.168159
-0.167721
-0.167259
-0.166812
-0.166318
-0.165797
-0.165258
-0.164716
-0.164194
-0.163596
0.3896
0.38725
0.382271
0.373996
0.361611
0.344481
0.322324
0.295347
0.264549
0.230856
0.195749
0.16132
0.128387
0.0968085
0.0679394
0.0416057
0.0178999
-0.00287764
-0.0210453
-0.0369546
-0.0510672
-0.0634927
-0.0744965
-0.0841999
-0.092833
-0.100515
-0.107387
-0.113543
-0.119034
-0.124055
-0.128522
-0.132595
-0.136304
-0.139655
-0.142704
-0.145484
-0.147985
-0.150311
-0.15236
-0.154263
-0.156016
-0.157545
-0.158993
-0.160289
-0.16144
-0.162483
-0.16344
-0.164266
-0.165012
-0.165691
-0.166253
-0.166763
-0.167194
-0.167576
-0.167877
-0.168108
-0.168283
-0.16842
-0.168533
-0.168542
-0.168527
-0.168513
-0.168419
-0.168272
-0.168123
-0.16795
-0.167714
-0.167444
-0.167136
-0.166829
-0.16649
-0.166109
-0.165703
-0.165305
-0.164864
-0.164397
-0.16391
-0.163416
-0.162942
-0.162398
0.373384
0.371751
0.368209
0.362134
0.352758
0.339419
0.321714
0.29954
0.273483
0.244194
0.212834
0.18066
0.148557
0.117672
0.0889308
0.0623704
0.0383181
0.0167673
-0.00250399
-0.0196632
-0.0349542
-0.0484822
-0.0604968
-0.0711639
-0.0806686
-0.0891469
-0.0967384
-0.103549
-0.10964
-0.115183
-0.120152
-0.124665
-0.128773
-0.132499
-0.135889
-0.138984
-0.141782
-0.14437
-0.146684
-0.148817
-0.150781
-0.152528
-0.15416
-0.155636
-0.156964
-0.158169
-0.159274
-0.160251
-0.161134
-0.16194
-0.162633
-0.163261
-0.163806
-0.164294
-0.164702
-0.165038
-0.165313
-0.165545
-0.165755
-0.165849
-0.165908
-0.165967
-0.165955
-0.16589
-0.165811
-0.165704
-0.165541
-0.165342
-0.165103
-0.164858
-0.16458
-0.164264
-0.16392
-0.163578
-0.163196
-0.162788
-0.162361
-0.161922
-0.1615
-0.161017
0.358433
0.357316
0.354818
0.350364
0.343246
0.332825
0.318652
0.300463
0.278576
0.253389
0.225667
0.196439
0.16668
0.137329
0.109243
0.0827491
0.0582701
0.0359461
0.0157467
-0.00238191
-0.0186403
-0.0331536
-0.0461111
-0.0576855
-0.0680267
-0.0772823
-0.0855868
-0.0930512
-0.0997473
-0.105824
-0.111302
-0.116269
-0.120789
-0.124901
-0.128645
-0.132065
-0.13517
-0.138032
-0.140617
-0.142991
-0.145178
-0.147149
-0.148975
-0.150638
-0.152149
-0.153523
-0.154784
-0.155916
-0.156944
-0.157883
-0.158711
-0.159463
-0.160127
-0.160726
-0.161245
-0.16169
-0.16207
-0.162396
-0.162687
-0.162883
-0.163038
-0.163174
-0.163246
-0.163265
-0.163261
-0.163226
-0.163138
-0.163014
-0.162848
-0.162669
-0.162458
-0.16221
-0.161932
-0.16165
-0.161332
-0.160987
-0.160624
-0.160245
-0.15988
-0.159461
0.34464
0.343899
0.342169
0.338921
0.33351
0.325339
0.313955
0.299015
0.280655
0.259083
0.234812
0.208691
0.181478
0.153945
0.126991
0.101064
0.0766619
0.0540543
0.0333299
0.0145115
-0.00252733
-0.0178776
-0.0316624
-0.0440536
-0.0551706
-0.0651614
-0.0741513
-0.0822518
-0.0895411
-0.0961507
-0.102134
-0.107558
-0.112496
-0.116998
-0.121102
-0.124853
-0.12827
-0.131413
-0.134273
-0.136895
-0.13931
-0.141507
-0.143534
-0.14539
-0.147086
-0.148634
-0.150055
-0.151345
-0.15252
-0.153597
-0.154562
-0.155441
-0.156228
-0.156942
-0.157574
-0.15813
-0.158615
-0.159038
-0.159418
-0.159718
-0.159968
-0.160183
-0.16034
-0.160446
-0.160519
-0.160558
-0.160548
-0.1605
-0.16041
-0.1603
-0.160157
-0.159979
-0.15977
-0.159551
-0.159299
-0.15902
-0.158722
-0.158406
-0.1581
-0.157747
0.331897
0.331433
0.330272
0.327929
0.323817
0.317389
0.308209
0.295902
0.280488
0.262049
0.240901
0.217686
0.19302
0.167554
0.142119
0.117187
0.0933015
0.070807
0.049884
0.0306435
0.013047
-0.00295377
-0.0174243
-0.0305215
-0.0423325
-0.0529959
-0.0626258
-0.0713293
-0.0791874
-0.0863169
-0.0927933
-0.0986687
-0.104022
-0.108912
-0.113375
-0.117458
-0.121188
-0.124615
-0.127749
-0.130622
-0.133269
-0.135693
-0.137924
-0.139975
-0.141857
-0.143581
-0.145165
-0.146614
-0.147938
-0.149155
-0.150258
-0.151265
-0.152176
-0.153005
-0.153752
-0.154418
-0.155009
-0.155532
-0.156006
-0.156405
-0.156748
-0.157048
-0.15729
-0.157481
-0.157633
-0.157748
-0.157815
-0.157844
-0.157829
-0.157789
-0.157715
-0.157608
-0.157468
-0.157313
-0.157127
-0.156915
-0.156683
-0.156432
-0.156185
-0.155898
0.320099
0.31984
0.319105
0.317446
0.314331
0.30926
0.301825
0.291649
0.278679
0.262912
0.244521
0.223977
0.201782
0.178462
0.154741
0.131077
0.108019
0.0859569
0.0651402
0.0457528
0.0278332
0.0113773
-0.0036239
-0.0173003
-0.029706
-0.0409639
-0.0511739
-0.0604345
-0.0688257
-0.0764515
-0.0833999
-0.0897129
-0.0954726
-0.100743
-0.105561
-0.109972
-0.114012
-0.117723
-0.121129
-0.124252
-0.127132
-0.129781
-0.132217
-0.134463
-0.136533
-0.138431
-0.14018
-0.141787
-0.143261
-0.144617
-0.145857
-0.146993
-0.148028
-0.148974
-0.149834
-0.150611
-0.151307
-0.151931
-0.152498
-0.152994
-0.153429
-0.153814
-0.154142
-0.154417
-0.154647
-0.154837
-0.154982
-0.155085
-0.155146
-0.155175
-0.15517
-0.155132
-0.155061
-0.15497
-0.15485
-0.154704
-0.154537
-0.154349
-0.154161
-0.153939
0.309152
0.309046
0.30863
0.307492
0.305146
0.301138
0.295092
0.286641
0.275691
0.262184
0.246194
0.22806
0.20817
0.186948
0.165011
0.142778
0.120773
0.0994008
0.0789544
0.0596694
0.0416479
0.0249308
0.00956089
-0.00455827
-0.0174483
-0.0292114
-0.0399306
-0.0496921
-0.0585713
-0.0666604
-0.0740529
-0.0807831
-0.086934
-0.0925727
-0.0977347
-0.102468
-0.106811
-0.110803
-0.114476
-0.117847
-0.120959
-0.123829
-0.126471
-0.128911
-0.131165
-0.133238
-0.13515
-0.136915
-0.138538
-0.140034
-0.14141
-0.142674
-0.143831
-0.144893
-0.145866
-0.146752
-0.147553
-0.148275
-0.148935
-0.149527
-0.150053
-0.150522
-0.150934
-0.151292
-0.151601
-0.151865
-0.152085
-0.152262
-0.152395
-0.152493
-0.152556
-0.152586
-0.152582
-0.152554
-0.152498
-0.152416
-0.152312
-0.152186
-0.152056
-0.151896
0.298969
0.298977
0.298802
0.298062
0.296314
0.293144
0.288208
0.281157
0.271875
0.260271
0.246352
0.230354
0.212572
0.193333
0.173166
0.152438
0.131628
0.111133
0.0912659
0.0722946
0.0543714
0.0375765
0.021998
0.00757449
-0.00568412
-0.017856
-0.0290053
-0.0392035
-0.0485182
-0.0570301
-0.0648326
-0.0719537
-0.0784753
-0.0844651
-0.0899584
-0.0950036
-0.0996405
-0.103906
-0.10784
-0.111455
-0.114795
-0.117883
-0.120728
-0.12336
-0.125797
-0.128042
-0.130116
-0.132036
-0.133806
-0.135441
-0.136951
-0.138342
-0.13962
-0.140798
-0.141882
-0.142875
-0.143779
-0.1446
-0.145353
-0.146037
-0.146652
-0.147204
-0.1477
-0.148139
-0.148525
-0.148862
-0.149155
-0.149404
-0.149608
-0.149773
-0.149902
-0.149997
-0.150058
-0.150092
-0.150098
-0.150078
-0.150034
-0.149968
-0.149893
-0.149792
0.289474
0.289568
0.289575
0.289141
0.287859
0.285354
0.281308
0.275398
0.267495
0.257491
0.245347
0.231223
0.215339
0.197939
0.179471
0.160253
0.14071
0.121214
0.10208
0.0835927
0.0659396
0.0492321
0.0335952
0.0190019
0.00549111
-0.00699011
-0.0184857
-0.0290509
-0.0387431
-0.0476314
-0.0558046
-0.0632853
-0.0701523
-0.0764725
-0.0822801
-0.0876231
-0.0925426
-0.0970741
-0.101259
-0.105112
-0.108675
-0.111976
-0.11502
-0.117841
-0.120456
-0.122871
-0.125106
-0.127178
-0.129093
-0.130866
-0.132508
-0.134024
-0.135422
-0.136714
-0.137908
-0.139006
-0.140011
-0.140929
-0.141773
-0.142549
-0.143251
-0.143885
-0.144462
-0.14498
-0.14544
-0.145852
-0.146215
-0.146534
-0.146806
-0.147037
-0.147231
-0.147389
-0.147513
-0.147607
-0.147672
-0.147711
-0.147726
-0.147716
-0.147695
-0.14765
0.280601
0.280758
0.280902
0.280704
0.279788
0.277811
0.274485
0.269507
0.262748
0.254089
0.243462
0.230972
0.216779
0.20106
0.184187
0.166435
0.148174
0.129745
0.11145
0.0935766
0.0763338
0.0598557
0.044296
0.0296583
0.0160076
0.00331583
-0.00844086
-0.0193004
-0.0293086
-0.0385221
-0.047023
-0.0548278
-0.0620111
-0.0686372
-0.0747391
-0.0803634
-0.0855514
-0.0903371
-0.0947645
-0.0988465
-0.102626
-0.106133
-0.109371
-0.112376
-0.115167
-0.117748
-0.12014
-0.122362
-0.12442
-0.126328
-0.128099
-0.129739
-0.131255
-0.132659
-0.13396
-0.135162
-0.136267
-0.13728
-0.138215
-0.13908
-0.139867
-0.140582
-0.141238
-0.141833
-0.142368
-0.142851
-0.143285
-0.143671
-0.144009
-0.144304
-0.14456
-0.14478
-0.144964
-0.145116
-0.145239
-0.145334
-0.145404
-0.145449
-0.145479
-0.145485
0.27229
0.272494
0.272741
0.272724
0.272096
0.270542
0.267798
0.263587
0.257777
0.250251
0.24092
0.229848
0.217151
0.202952
0.187556
0.171195
0.154195
0.136856
0.119463
0.102295
0.0855709
0.069439
0.0540737
0.0395046
0.0258187
0.013011
0.00107713
-0.0100036
-0.0202645
-0.0297496
-0.0385322
-0.0466227
-0.05409
-0.0609948
-0.0673681
-0.0732545
-0.0786948
-0.0837214
-0.0883791
-0.0926806
-0.0966687
-0.100374
-0.103801
-0.106985
-0.109945
-0.112689
-0.115234
-0.117603
-0.1198
-0.121841
-0.123739
-0.125499
-0.127132
-0.128646
-0.130053
-0.131357
-0.132559
-0.133666
-0.134691
-0.135642
-0.136512
-0.137308
-0.138041
-0.138712
-0.139319
-0.13987
-0.140375
-0.140827
-0.141229
-0.141586
-0.141902
-0.142182
-0.142425
-0.142632
-0.14281
-0.14296
-0.143083
-0.143179
-0.143258
-0.143314
0.264488
0.264726
0.265051
0.265173
0.264771
0.263557
0.261288
0.257709
0.252692
0.24612
0.237897
0.228054
0.216673
0.203837
0.189795
0.174737
0.158945
0.14269
0.126227
0.109822
0.0936947
0.0780008
0.0629274
0.0485249
0.034898
0.0220623
0.0100313
-0.00119926
-0.0116498
-0.0213517
-0.0303687
-0.0387043
-0.046421
-0.053575
-0.0601947
-0.0663221
-0.0719964
-0.0772487
-0.0821234
-0.0866331
-0.0908201
-0.0947154
-0.0983231
-0.10168
-0.104805
-0.107705
-0.1104
-0.112911
-0.115245
-0.117415
-0.119437
-0.121316
-0.123061
-0.124684
-0.126195
-0.127598
-0.128897
-0.130095
-0.131208
-0.132244
-0.133196
-0.13407
-0.13488
-0.135624
-0.136302
-0.136922
-0.137493
-0.138011
-0.138475
-0.138892
-0.139268
-0.139605
-0.139904
-0.140166
-0.140398
-0.140599
-0.140773
-0.140919
-0.141044
-0.141147
0.257149
0.257412
0.257794
0.258023
0.2578
0.256859
0.254979
0.251923
0.247569
0.241806
0.234529
0.225751
0.215526
0.203905
0.191092
0.177241
0.162594
0.147389
0.131858
0.116246
0.100768
0.0855801
0.0708763
0.0567225
0.0432369
0.0304523
0.0183984
0.00708595
-0.00349301
-0.0133577
-0.0225611
-0.0311004
-0.0390305
-0.0464028
-0.0532421
-0.0595875
-0.0654762
-0.0709372
-0.0760143
-0.0807197
-0.0850947
-0.0891705
-0.0929511
-0.0964734
-0.0997566
-0.102808
-0.105647
-0.108297
-0.110762
-0.113059
-0.115202
-0.117196
-0.119052
-0.12078
-0.122393
-0.123893
-0.125285
-0.126574
-0.127773
-0.128892
-0.129924
-0.130876
-0.131759
-0.132575
-0.133322
-0.13401
-0.134646
-0.135231
-0.135753
-0.136229
-0.136662
-0.137056
-0.137409
-0.137724
-0.138007
-0.138259
-0.138481
-0.138675
-0.138845
-0.138992
0.250232
0.250513
0.250936
0.251246
0.251164
0.250445
0.248883
0.246262
0.242466
0.237388
0.230923
0.223067
0.213856
0.203317
0.191612
0.178871
0.165295
0.151093
0.136475
0.121664
0.106865
0.0922305
0.0779553
0.0641167
0.0508416
0.0381776
0.0261677
0.0148361
0.00418662
-0.00578844
-0.0151314
-0.0238328
-0.03194
-0.0394986
-0.0465298
-0.0530691
-0.0591512
-0.0648029
-0.0700666
-0.074954
-0.0795051
-0.0837509
-0.0876953
-0.0913751
-0.0948093
-0.0980057
-0.100984
-0.103767
-0.10636
-0.108778
-0.111038
-0.113144
-0.115108
-0.11694
-0.118651
-0.120246
-0.121729
-0.123106
-0.124389
-0.12559
-0.126701
-0.127727
-0.128684
-0.12957
-0.130385
-0.131138
-0.131836
-0.132477
-0.133068
-0.133601
-0.134089
-0.134538
-0.134944
-0.135311
-0.135643
-0.135944
-0.136213
-0.136452
-0.136666
-0.136855
0.243702
0.243994
0.244446
0.244817
0.244846
0.244306
0.243007
0.240749
0.237423
0.232929
0.227161
0.220106
0.211784
0.202203
0.191497
0.179767
0.167186
0.153933
0.140195
0.126176
0.112067
0.0980148
0.0842105
0.0707383
0.0577307
0.0452463
0.0333391
0.0220453
0.0113787
0.00134275
-0.00809474
-0.0169176
-0.0251658
-0.0328786
-0.0400735
-0.0467819
-0.0530356
-0.058859
-0.0642926
-0.0693475
-0.074062
-0.0784665
-0.0825649
-0.0863934
-0.089971
-0.0933055
-0.0964168
-0.0993268
-0.102043
-0.104579
-0.106952
-0.109166
-0.111234
-0.113166
-0.114973
-0.116661
-0.118233
-0.119696
-0.121061
-0.122341
-0.123528
-0.124628
-0.125656
-0.126611
-0.127492
-0.128309
-0.129069
-0.129773
-0.130423
-0.131011
-0.131553
-0.132054
-0.132512
-0.132929
-0.13331
-0.133657
-0.133972
-0.134255
-0.134511
-0.134741
0.237526
0.237824
0.238296
0.238713
0.238829
0.238433
0.237352
0.235398
0.23247
0.228474
0.223307
0.216947
0.209405
0.200675
0.190863
0.180054
0.16839
0.156025
0.143126
0.129877
0.116457
0.103001
0.0896953
0.0766273
0.0639317
0.0516757
0.0399218
0.0287157
0.0180805
0.00802945
-0.00146005
-0.0103657
-0.0187196
-0.0265551
-0.0338854
-0.040738
-0.0471411
-0.0531166
-0.0587029
-0.06391
-0.0687745
-0.0733258
-0.0775678
-0.0815357
-0.0852483
-0.0887136
-0.0919512
-0.0949829
-0.0978159
-0.100465
-0.102947
-0.105266
-0.107434
-0.109463
-0.111363
-0.113141
-0.114799
-0.116345
-0.11779
-0.119147
-0.120409
-0.121581
-0.122678
-0.1237
-0.124646
-0.125526
-0.126347
-0.127109
-0.127811
-0.128459
-0.129055
-0.129607
-0.130115
-0.13058
-0.131009
-0.131402
-0.131761
-0.132086
-0.132383
-0.132652
0.231675
0.231977
0.232461
0.23291
0.233094
0.232816
0.231914
0.230216
0.227627
0.224057
0.21941
0.213656
0.206798
0.198822
0.189812
0.179837
0.169014
0.157477
0.145371
0.132862
0.120116
0.107259
0.0944673
0.0818293
0.0694795
0.0574909
0.0459323
0.0348571
0.0242963
0.0142715
0.0047692
-0.00418262
-0.0126088
-0.0205364
-0.0279745
-0.0349463
-0.0414766
-0.0475845
-0.053306
-0.0586496
-0.0636502
-0.068336
-0.0727106
-0.0768082
-0.0806471
-0.0842353
-0.0875922
-0.0907393
-0.093684
-0.0964408
-0.0990265
-0.101446
-0.103711
-0.105833
-0.107823
-0.109687
-0.111429
-0.113056
-0.114579
-0.11601
-0.117345
-0.118587
-0.119751
-0.120839
-0.121848
-0.122789
-0.123669
-0.124488
-0.125246
-0.125949
-0.126596
-0.127198
-0.127755
-0.128267
-0.128742
-0.129179
-0.129581
-0.129947
-0.130283
-0.130591
0.226124
0.226426
0.226916
0.227388
0.227625
0.227442
0.226689
0.225207
0.222906
0.219703
0.215505
0.21028
0.204025
0.196718
0.188427
0.179205
0.169152
0.158381
0.14702
0.135217
0.123124
0.110859
0.0985857
0.0863933
0.0744132
0.062722
0.0513928
0.040485
0.0300356
0.020074
0.0105946
0.0016303
-0.00683648
-0.0148271
-0.0223463
-0.0294132
-0.0360489
-0.0422695
-0.0481084
-0.0535729
-0.0586954
-0.0635031
-0.067999
-0.0722161
-0.0761722
-0.0798753
-0.0833442
-0.0866001
-0.0896504
-0.0925097
-0.0951944
-0.0977097
-0.100068
-0.102279
-0.104356
-0.106303
-0.108126
-0.10983
-0.111429
-0.112933
-0.114337
-0.115647
-0.116877
-0.118028
-0.119099
-0.120099
-0.121036
-0.121911
-0.122724
-0.12348
-0.124176
-0.124827
-0.125432
-0.12599
-0.126509
-0.12699
-0.127433
-0.12784
-0.128214
-0.128559
0.220849
0.221149
0.221641
0.222128
0.222405
0.222298
0.22167
0.220371
0.218316
0.21543
0.211623
0.206861
0.201137
0.194423
0.186775
0.178235
0.168884
0.158821
0.148155
0.13702
0.125555
0.113866
0.102109
0.0903695
0.0787747
0.0674029
0.0563299
0.0456192
0.035313
0.0254467
0.0160219
0.00707588
-0.00140239
-0.00942861
-0.0170037
-0.0241423
-0.0308621
-0.0371761
-0.0431149
-0.0486845
-0.0539148
-0.0588316
-0.0634373
-0.0677636
-0.0718277
-0.0756372
-0.0792105
-0.0825684
-0.0857182
-0.0886742
-0.091453
-0.0940594
-0.0965057
-0.0988027
-0.100962
-0.10299
-0.10489
-0.10667
-0.108341
-0.109915
-0.111387
-0.112763
-0.114057
-0.115269
-0.116399
-0.117457
-0.118451
-0.119379
-0.120244
-0.121047
-0.121798
-0.122497
-0.123147
-0.12375
-0.124312
-0.124834
-0.125318
-0.125764
-0.126176
-0.126557
0.21583
0.216127
0.216617
0.217112
0.217419
0.217375
0.21685
0.215705
0.213862
0.211251
0.207784
0.203428
0.198173
0.191988
0.184916
0.176991
0.168281
0.158868
0.14885
0.138343
0.127475
0.116344
0.105095
0.0938082
0.082607
0.0715696
0.0607728
0.0502832
0.0401464
0.0304029
0.0210605
0.0121603
0.00369713
-0.00433945
-0.0119465
-0.0191348
-0.0259182
-0.032307
-0.0383287
-0.0439878
-0.0493118
-0.054325
-0.059029
-0.063454
-0.0676166
-0.0715241
-0.0751941
-0.0786469
-0.0818898
-0.0849369
-0.0878043
-0.0904971
-0.0930274
-0.0954059
-0.0976445
-0.0997488
-0.101723
-0.103575
-0.105316
-0.106958
-0.108495
-0.109935
-0.11129
-0.112562
-0.11375
-0.114864
-0.115911
-0.116892
-0.117808
-0.118661
-0.119461
-0.120205
-0.120899
-0.121546
-0.122151
-0.122714
-0.123236
-0.12372
-0.124169
-0.124585
0.211048
0.211341
0.211826
0.212325
0.212653
0.212659
0.21222
0.211207
0.209547
0.207173
0.204004
0.200006
0.195166
0.18945
0.182895
0.175526
0.167399
0.158584
0.149166
0.139249
0.128948
0.118352
0.107597
0.096758
0.085953
0.075259
0.0647528
0.0545024
0.0445563
0.0349587
0.0257228
0.0168926
0.00846844
0.000444575
-0.00717255
-0.0143896
-0.0212175
-0.027663
-0.0337512
-0.0394846
-0.0448886
-0.0499855
-0.0547763
-0.0592898
-0.0635414
-0.0675382
-0.0712971
-0.0748378
-0.0781673
-0.0812994
-0.0842501
-0.0870243
-0.089634
-0.09209
-0.0944038
-0.0965812
-0.0986268
-0.100548
-0.102356
-0.104063
-0.105663
-0.107164
-0.108578
-0.109908
-0.111152
-0.11232
-0.11342
-0.114451
-0.115416
-0.116318
-0.117165
-0.117953
-0.118691
-0.11938
-0.120025
-0.120628
-0.121189
-0.121709
-0.122193
-0.122643
0.206487
0.206774
0.207253
0.207751
0.208095
0.20814
0.207773
0.206872
0.205369
0.203202
0.200294
0.196611
0.19214
0.186844
0.180753
0.173886
0.16629
0.158024
0.149162
0.139795
0.13003
0.119944
0.109665
0.0992655
0.0888545
0.078508
0.0683016
0.058304
0.0485652
0.0391325
0.0300234
0.0212843
0.0129202
0.0049298
-0.00267722
-0.00990401
-0.016758
-0.0232434
-0.0293822
-0.0351755
-0.040646
-0.0458143
-0.0506807
-0.0552722
-0.0596035
-0.063681
-0.067521
-0.0711424
-0.074552
-0.0777632
-0.0807916
-0.0836423
-0.0863268
-0.0888559
-0.091241
-0.093488
-0.0956013
-0.0975884
-0.0994606
-0.101229
-0.102891
-0.10445
-0.105922
-0.107306
-0.108604
-0.109825
-0.110975
-0.112056
-0.113069
-0.114017
-0.114908
-0.115741
-0.116522
-0.117251
-0.117936
-0.118577
-0.119175
-0.119732
-0.12025
-0.120733
0.202131
0.202412
0.202882
0.203377
0.20373
0.203807
0.203499
0.202695
0.201328
0.199342
0.196664
0.193259
0.189115
0.184195
0.178521
0.172109
0.164996
0.157233
0.148885
0.140032
0.130769
0.121169
0.111348
0.101375
0.0913518
0.0813526
0.071451
0.0617153
0.0521965
0.0429438
0.0339784
0.0253483
0.0170627
0.00912438
0.00154564
-0.00567323
-0.0125366
-0.019046
-0.0252205
-0.0310597
-0.0365838
-0.0418117
-0.0467427
-0.0514021
-0.0558038
-0.0599536
-0.0638668
-0.0675617
-0.0710448
-0.0743292
-0.0774299
-0.0803518
-0.0831065
-0.0857044
-0.0881569
-0.0904696
-0.0926474
-0.0946973
-0.0966308
-0.098459
-0.100178
-0.101794
-0.103321
-0.104759
-0.106108
-0.107379
-0.108579
-0.109707
-0.110766
-0.111758
-0.11269
-0.11357
-0.114391
-0.11516
-0.115883
-0.116562
-0.117196
-0.117787
-0.118339
-0.118854
0.197967
0.198241
0.198701
0.19919
0.199549
0.199649
0.199392
0.198669
0.19742
0.195593
0.193117
0.189961
0.186108
0.181525
0.176227
0.170226
0.163553
0.156251
0.148377
0.140002
0.131212
0.122071
0.112688
0.103126
0.0934827
0.0838276
0.0742322
0.0647641
0.0554741
0.0464132
0.0376051
0.0290991
0.0209081
0.0130379
0.00550373
-0.00169128
-0.0085486
-0.0150671
-0.0212634
-0.0271354
-0.0327008
-0.0379768
-0.0429617
-0.0476794
-0.0521424
-0.056356
-0.0603348
-0.0640962
-0.0676464
-0.0709979
-0.0741653
-0.0771534
-0.0799736
-0.082636
-0.0851518
-0.0875266
-0.0897653
-0.0918749
-0.0938666
-0.0957515
-0.0975259
-0.0991959
-0.100775
-0.102264
-0.103664
-0.104983
-0.10623
-0.107404
-0.108507
-0.109543
-0.110518
-0.111439
-0.112299
-0.113106
-0.113867
-0.114581
-0.11525
-0.115875
-0.11646
-0.117007
0.193981
0.194248
0.194698
0.195178
0.195539
0.195658
0.195442
0.19479
0.193644
0.191956
0.189659
0.186722
0.183131
0.178849
0.17389
0.168262
0.161991
0.155112
0.147676
0.139745
0.131397
0.122691
0.113724
0.104558
0.095283
0.0859659
0.0766753
0.0674772
0.0584221
0.0495616
0.0409217
0.0325521
0.024469
0.0166812
0.00920587
0.00204903
-0.00478821
-0.0113024
-0.0175074
-0.0233998
-0.0289948
-0.034308
-0.0393368
-0.0441031
-0.0486187
-0.0528881
-0.056925
-0.0607459
-0.0643566
-0.0677693
-0.070998
-0.0740473
-0.0769283
-0.0796508
-0.0822259
-0.0846591
-0.0869552
-0.0891213
-0.0911682
-0.093107
-0.0949342
-0.0966557
-0.0982851
-0.0998233
-0.101271
-0.102637
-0.103929
-0.105147
-0.106293
-0.107371
-0.108388
-0.109347
-0.110245
-0.111089
-0.111886
-0.112635
-0.113338
-0.113996
-0.114612
-0.11519
0.190163
0.190423
0.19086
0.191331
0.191691
0.191825
0.191643
0.191051
0.189995
0.188429
0.186291
0.18355
0.180193
0.176183
0.17153
0.166241
0.160336
0.153846
0.146813
0.139294
0.13136
0.123062
0.114492
0.105705
0.0967857
0.0877987
0.0788091
0.0698809
0.061064
0.0524098
0.0439462
0.0357232
0.0277592
0.0200657
0.0126618
0.00555581
-0.00124871
-0.00774612
-0.013948
-0.0198492
-0.025463
-0.0308031
-0.035866
-0.040672
-0.0452316
-0.0495489
-0.0536365
-0.0575102
-0.0611753
-0.0646433
-0.0679278
-0.0710333
-0.0739705
-0.0767489
-0.0793792
-0.0818671
-0.0842172
-0.0864365
-0.0885357
-0.0905255
-0.0924028
-0.0941735
-0.0958508
-0.0974358
-0.0989291
-0.10034
-0.101675
-0.102936
-0.104124
-0.105241
-0.106297
-0.107294
-0.10823
-0.109111
-0.109942
-0.110725
-0.11146
-0.11215
-0.112797
-0.113404
0.186501
0.186754
0.18718
0.187639
0.187996
0.18814
0.187986
0.187446
0.186468
0.18501
0.183014
0.180449
0.177301
0.173536
0.169161
0.16418
0.158609
0.152475
0.145816
0.13868
0.131132
0.123218
0.115023
0.106598
0.0980214
0.0893549
0.0806607
0.0720003
0.0634225
0.0549785
0.0466971
0.0386283
0.0307926
0.0232036
0.0158818
0.00883786
0.00207733
-0.00439216
-0.0105799
-0.0164795
-0.0221018
-0.0274591
-0.032547
-0.037384
-0.0419796
-0.0463372
-0.0504685
-0.0543883
-0.0581016
-0.0616193
-0.0649544
-0.0681111
-0.0710998
-0.0739298
-0.0766115
-0.0791503
-0.081551
-0.0838203
-0.0859687
-0.0880068
-0.0899315
-0.0917489
-0.0934718
-0.0951015
-0.0966386
-0.0980921
-0.0994692
-0.10077
-0.101998
-0.103154
-0.104246
-0.105278
-0.106254
-0.107169
-0.108033
-0.108849
-0.109616
-0.110337
-0.111013
-0.111649
0.182987
0.183232
0.183645
0.184094
0.184445
0.184596
0.184465
0.18397
0.18306
0.181699
0.179828
0.17742
0.174461
0.170917
0.166794
0.162093
0.156829
0.151022
0.144707
0.137926
0.130739
0.123187
0.115346
0.107265
0.0990179
0.0906615
0.0822556
0.0738592
0.0655196
0.0572875
0.0491924
0.0412836
0.0335834
0.0261073
0.0188768
0.0119045
0.00519792
-0.00123364
-0.00739732
-0.0132855
-0.0189071
-0.0242726
-0.0293767
-0.0342366
-0.0388605
-0.0432512
-0.0474194
-0.0513789
-0.0551345
-0.0586963
-0.0620768
-0.0652799
-0.0683157
-0.0711931
-0.0739222
-0.0765084
-0.0789562
-0.0812723
-0.083467
-0.0855505
-0.0875201
-0.0893817
-0.0911479
-0.0928201
-0.0943989
-0.0958932
-0.0973101
-0.0986503
-0.0999155
-0.101109
-0.102238
-0.103306
-0.104315
-0.105263
-0.10616
-0.107007
-0.107805
-0.108556
-0.109261
-0.109925
0.179611
0.179848
0.18025
0.180685
0.18103
0.181185
0.181073
0.180616
0.179767
0.17849
0.176732
0.174465
0.171676
0.168333
0.164439
0.159994
0.15501
0.149505
0.143507
0.137057
0.130206
0.122993
0.115487
0.107733
0.0998008
0.0917433
0.0836175
0.07548
0.0673762
0.0593561
0.0514494
0.0437048
0.0361458
0.0287892
0.0216577
0.0147654
0.00812144
0.00173671
-0.004394
-0.0102619
-0.0158741
-0.0212394
-0.0263519
-0.0312269
-0.0358719
-0.0402888
-0.0444873
-0.0484806
-0.0522727
-0.0558732
-0.059294
-0.0625389
-0.0656174
-0.0685381
-0.0713108
-0.0739407
-0.0764322
-0.0787921
-0.08103
-0.0831563
-0.0851682
-0.0870715
-0.0888788
-0.0905913