/*--------------------------------*- C++ -*----------------------------------*\
| =========                 |                                                 |
| \\      /  F ield         | OpenFOAM: The Open Source CFD Toolbox           |
|  \\    /   O peration     | Version:  2412                                  |
|   \\  /    A nd           | Website:  www.openfoam.com                      |
|    \\/     M anipulation  |                                                 |
\*---------------------------------------------------------------------------*/
FoamFile
{
    version     2.0;
    format      ascii;
    arch        "LSB;label=32;scalar=64";
    class       volScalarField;
    location    "1.99";
    object      p;
}
// * * * * * * * * * * * * * * * * * * * * * * * * * * * * * * * * * * * * * //

dimensions      [0 2 -2 0 0 0 0];

internalField   nonuniform List<scalar> 
64350
(
-0.0824664
-0.0818548
-0.0812543
-0.0806393
-0.0800419
-0.0794518
-0.0788382
-0.0782448
-0.0776573
-0.0770631
-0.076452
-0.0758617
-0.0752774
-0.0746933
-0.0740897
-0.0735023
-0.0729033
-0.0723398
-0.0717255
-0.0711673
-0.0705772
-0.0700014
-0.0694095
-0.0688437
-0.0682679
-0.067674
-0.067098
-0.0665395
-0.0659643
-0.0653983
-0.0648137
-0.0642441
-0.0636963
-0.063121
-0.062553
-0.0619884
-0.0614189
-0.0608666
-0.0603205
-0.0597518
-0.059202
-0.05864
-0.058081
-0.0575308
-0.0569831
-0.0564188
-0.0558762
-0.055306
-0.0547387
-0.0541823
-0.0536423
-0.0824615
-0.0818522
-0.0812523
-0.0806401
-0.0800418
-0.0794505
-0.0788403
-0.078246
-0.0776569
-0.0770639
-0.0764574
-0.0758668
-0.0752807
-0.074696
-0.0740965
-0.0735104
-0.072914
-0.0723476
-0.0717394
-0.0711762
-0.0705878
-0.0700121
-0.0694229
-0.0688549
-0.0682803
-0.0676915
-0.067116
-0.0665545
-0.06598
-0.0654147
-0.0648344
-0.0642651
-0.0637139
-0.0631412
-0.0625754
-0.062013
-0.0614458
-0.0608916
-0.0603436
-0.0597781
-0.0592289
-0.0586705
-0.0581146
-0.0575659
-0.057021
-0.0564645
-0.0559288
-0.0553775
-0.054836
-0.0543006
-0.0537856
-0.0532785
-0.0528194
-0.0525679
-0.0523359
-0.0824562
-0.0818476
-0.0812491
-0.0806371
-0.0800391
-0.0794491
-0.0788386
-0.0782447
-0.0776562
-0.0770641
-0.0764576
-0.0758676
-0.075282
-0.0746983
-0.0740988
-0.0735139
-0.072917
-0.0723529
-0.071743
-0.0711817
-0.0705932
-0.0700185
-0.0694288
-0.0688619
-0.0682884
-0.0676994
-0.0671243
-0.0665639
-0.0659893
-0.0654251
-0.0648447
-0.0642754
-0.0637259
-0.0631532
-0.062588
-0.0620265
-0.0614592
-0.0609056
-0.060359
-0.059793
-0.0592454
-0.0586878
-0.0581328
-0.0575857
-0.0570431
-0.0564876
-0.0559557
-0.0554062
-0.0548678
-0.0543407
-0.0538115
-0.0532977
-0.0527938
-0.052367
-0.0518004
-0.0824487
-0.0818405
-0.0812434
-0.0806316
-0.0800342
-0.0794456
-0.0788348
-0.0782414
-0.0776539
-0.0770628
-0.0764561
-0.0758667
-0.0752819
-0.0746994
-0.0740997
-0.073516
-0.0729187
-0.0723571
-0.0717455
-0.0711862
-0.0705976
-0.0700239
-0.0694338
-0.0688681
-0.0682958
-0.0677064
-0.0671315
-0.0665727
-0.065998
-0.065435
-0.0648544
-0.0642851
-0.0637376
-0.0631648
-0.0626001
-0.0620394
-0.061472
-0.0609192
-0.060374
-0.0598076
-0.0592614
-0.0587044
-0.0581502
-0.0576044
-0.0570638
-0.0565087
-0.0559798
-0.0554311
-0.0548926
-0.0543644
-0.0538413
-0.0532866
-0.0527406
-0.0522302
-0.0515564
-0.0824368
-0.081829
-0.0812334
-0.0806218
-0.080025
-0.0794378
-0.078827
-0.0782342
-0.0776477
-0.0770577
-0.0764507
-0.075862
-0.0752781
-0.0746969
-0.0740972
-0.0735145
-0.0729168
-0.0723577
-0.0717446
-0.0711873
-0.0705987
-0.0700261
-0.0694356
-0.0688712
-0.0683
-0.0677103
-0.0671355
-0.0665782
-0.0660037
-0.0654417
-0.0648609
-0.0642917
-0.0637461
-0.0631733
-0.0626089
-0.0620489
-0.0614814
-0.0609292
-0.0603856
-0.0598186
-0.0592736
-0.0587169
-0.0581628
-0.0576177
-0.0570782
-0.0565222
-0.0559943
-0.055444
-0.0549022
-0.0543669
-0.0538339
-0.0532797
-0.0526797
-0.0521302
-0.0514202
-0.0824194
-0.081812
-0.0812177
-0.0806066
-0.0800103
-0.0794248
-0.0788141
-0.0782218
-0.0776364
-0.0770477
-0.0764406
-0.0758525
-0.0752696
-0.0746898
-0.07409
-0.0735085
-0.0729103
-0.0723538
-0.0717394
-0.0711839
-0.0705955
-0.070024
-0.0694333
-0.06887
-0.0683
-0.06771
-0.0671353
-0.0665795
-0.0660053
-0.0654444
-0.0648634
-0.064294
-0.0637504
-0.0631776
-0.0626133
-0.062054
-0.0614863
-0.0609346
-0.0603924
-0.0598248
-0.0592805
-0.0587237
-0.0581692
-0.0576241
-0.0570849
-0.0565268
-0.0559985
-0.0554449
-0.0548986
-0.0543565
-0.0538134
-0.0532491
-0.0526604
-0.0520643
-0.0513345
-0.0823952
-0.0817882
-0.0811954
-0.0805849
-0.0799893
-0.0794054
-0.078795
-0.0782034
-0.0776191
-0.0770317
-0.0764248
-0.0758373
-0.0752555
-0.0746771
-0.0740775
-0.073497
-0.0728985
-0.0723445
-0.0717291
-0.0711753
-0.0705873
-0.0700169
-0.069426
-0.0688637
-0.068295
-0.0677049
-0.0671302
-0.066576
-0.066002
-0.0654421
-0.064861
-0.0642916
-0.0637497
-0.063177
-0.0626128
-0.062054
-0.061486
-0.0609346
-0.0603937
-0.0598252
-0.0592813
-0.0587241
-0.0581688
-0.0576229
-0.0570832
-0.0565223
-0.0559922
-0.0554345
-0.0548828
-0.0543342
-0.0537831
-0.0532071
-0.0526018
-0.0520225
-0.0513252
-0.0823629
-0.0817565
-0.0811652
-0.0805556
-0.0799607
-0.0793786
-0.0787688
-0.0781779
-0.0775948
-0.0770088
-0.0764022
-0.0758155
-0.0752347
-0.0746579
-0.0740585
-0.0734792
-0.0728805
-0.0723289
-0.0717128
-0.0711606
-0.0705732
-0.0700039
-0.069413
-0.0688517
-0.0682843
-0.0676941
-0.0671195
-0.0665668
-0.0659932
-0.0654343
-0.0648532
-0.0642836
-0.0637433
-0.0631708
-0.0626066
-0.0620481
-0.0614799
-0.0609285
-0.0603886
-0.0598192
-0.0592752
-0.0587173
-0.0581608
-0.0576136
-0.0570728
-0.0565084
-0.0559759
-0.0554134
-0.0548561
-0.0543013
-0.053744
-0.0531615
-0.0525478
-0.0519648
-0.0512839
-0.0823213
-0.0817156
-0.0811259
-0.0805174
-0.0799233
-0.079343
-0.0787341
-0.0781441
-0.0775623
-0.0769778
-0.0763718
-0.0757859
-0.0752063
-0.0746311
-0.0740322
-0.0734542
-0.0728554
-0.0723061
-0.0716897
-0.0711389
-0.0705522
-0.0699842
-0.0693935
-0.068833
-0.068267
-0.067677
-0.0671025
-0.0665512
-0.065978
-0.06542
-0.0648391
-0.0642692
-0.0637304
-0.0631581
-0.0625937
-0.0620356
-0.061467
-0.0609155
-0.0603764
-0.0598059
-0.0592616
-0.0587027
-0.0581445
-0.0575955
-0.0570532
-0.056485
-0.0559496
-0.0553825
-0.0548196
-0.0542591
-0.0536967
-0.0531101
-0.052492
-0.0519075
-0.0512466
-0.082269
-0.0816641
-0.0810762
-0.0804692
-0.079876
-0.0792976
-0.0786899
-0.0781009
-0.0775204
-0.0769377
-0.0763325
-0.0757476
-0.0751691
-0.0745957
-0.0739975
-0.0734208
-0.0728221
-0.0722752
-0.0716589
-0.0711094
-0.0705235
-0.0699568
-0.0693664
-0.0688068
-0.0682422
-0.0676527
-0.0670781
-0.0665282
-0.0659555
-0.0653984
-0.0648179
-0.0642476
-0.0637101
-0.0631382
-0.0625736
-0.0620157
-0.0614468
-0.0608948
-0.0603563
-0.0597847
-0.0592397
-0.0586796
-0.0581196
-0.0575685
-0.0570244
-0.0564522
-0.0559138
-0.0553421
-0.0547741
-0.0542085
-0.0536418
-0.0530521
-0.0524312
-0.0518452
-0.0512075
-0.0822044
-0.0816008
-0.0810146
-0.0804094
-0.0798174
-0.079241
-0.0786349
-0.0780471
-0.077468
-0.0768872
-0.0762832
-0.0756994
-0.0751222
-0.0745506
-0.0739533
-0.0733782
-0.0727798
-0.072235
-0.0716192
-0.071071
-0.0704862
-0.0699207
-0.069331
-0.0687722
-0.0682091
-0.0676202
-0.0670458
-0.0664971
-0.0659251
-0.0653688
-0.0647887
-0.0642182
-0.0636817
-0.0631102
-0.0625454
-0.0619876
-0.0614184
-0.0608659
-0.0603277
-0.0597549
-0.0592089
-0.0586475
-0.0580856
-0.0575322
-0.0569861
-0.0564102
-0.0558686
-0.0552927
-0.0547201
-0.0541499
-0.0535795
-0.0529875
-0.0523645
-0.0517751
-0.0511613
-0.0821263
-0.0815241
-0.08094
-0.0803369
-0.0797463
-0.0791719
-0.0785678
-0.0779814
-0.0774038
-0.0768251
-0.0762226
-0.0756401
-0.0750643
-0.0744947
-0.0738986
-0.0733252
-0.0727273
-0.0721847
-0.0715698
-0.0710227
-0.0704392
-0.0698751
-0.0692863
-0.0687283
-0.0681666
-0.0675786
-0.0670044
-0.066457
-0.0658857
-0.0653302
-0.0647507
-0.06418
-0.0636444
-0.0630734
-0.0625083
-0.0619506
-0.0613811
-0.0608279
-0.0602899
-0.059716
-0.0591688
-0.0586061
-0.0580422
-0.0574864
-0.0569384
-0.0563588
-0.0558141
-0.0552345
-0.0546577
-0.0540836
-0.0535101
-0.0529163
-0.0522917
-0.051697
-0.0511069
-0.0820331
-0.0814329
-0.0808509
-0.0802503
-0.0796613
-0.0790891
-0.0784874
-0.0779026
-0.0773267
-0.0767502
-0.0761497
-0.0755687
-0.0749944
-0.0744268
-0.0738323
-0.0732607
-0.0726637
-0.0721231
-0.0715097
-0.0709636
-0.0703816
-0.069819
-0.0692313
-0.0686741
-0.0681139
-0.0675272
-0.0669533
-0.066407
-0.0658365
-0.0652819
-0.0647032
-0.0641324
-0.0635974
-0.0630271
-0.0624618
-0.0619041
-0.0613343
-0.0607803
-0.0602423
-0.0596674
-0.0591189
-0.0585548
-0.0579891
-0.0574308
-0.0568809
-0.056298
-0.0557504
-0.0551676
-0.0545871
-0.0540096
-0.0534334
-0.0528383
-0.0522125
-0.0516108
-0.0510439
-0.0819236
-0.0813256
-0.080746
-0.0801484
-0.0795613
-0.0789914
-0.0783924
-0.0778095
-0.0772355
-0.0766614
-0.0760632
-0.075484
-0.0749114
-0.074346
-0.0737533
-0.0731837
-0.072588
-0.0720492
-0.0714377
-0.0708928
-0.0703125
-0.0697514
-0.0691652
-0.0686087
-0.0680502
-0.0674649
-0.0668916
-0.0663464
-0.0657768
-0.065223
-0.0646454
-0.0640745
-0.0635401
-0.0629705
-0.062405
-0.0618473
-0.0612775
-0.0607226
-0.0601845
-0.0596087
-0.0590589
-0.0584935
-0.057926
-0.0573654
-0.0568137
-0.0562279
-0.0556774
-0.0550919
-0.0545083
-0.0539279
-0.0533493
-0.0527531
-0.052127
-0.0515168
-0.0509722
-0.0817966
-0.0812013
-0.0806242
-0.0800299
-0.0794451
-0.0788776
-0.0782818
-0.0777011
-0.0771292
-0.0765576
-0.0759622
-0.075385
-0.0748142
-0.0742511
-0.0736606
-0.0730932
-0.0724992
-0.0719622
-0.0713532
-0.0708092
-0.0702309
-0.0696715
-0.069087
-0.0685314
-0.0679745
-0.0673911
-0.0668184
-0.0662742
-0.0657059
-0.0651528
-0.0645765
-0.0640057
-0.0634717
-0.0629029
-0.0623375
-0.0617798
-0.06121
-0.0606543
-0.0601159
-0.0595394
-0.0589883
-0.0584219
-0.0578527
-0.0572899
-0.0567366
-0.0561483
-0.0555953
-0.0550075
-0.0544212
-0.0538383
-0.0532578
-0.0526606
-0.0520347
-0.051415
-0.0508916
-0.081651
-0.0810589
-0.0804846
-0.0798938
-0.0793117
-0.0787468
-0.0781545
-0.0775764
-0.0770067
-0.0764379
-0.0758457
-0.0752707
-0.074702
-0.0741414
-0.0735535
-0.0729884
-0.0723965
-0.0718612
-0.0712551
-0.0707122
-0.070136
-0.0695784
-0.0689961
-0.0684414
-0.0678862
-0.0673049
-0.0667332
-0.0661899
-0.0656229
-0.0650708
-0.0644959
-0.0639255
-0.0633916
-0.062824
-0.0622586
-0.0617011
-0.0611315
-0.060575
-0.0600363
-0.0594594
-0.058907
-0.0583396
-0.0577692
-0.0572044
-0.0566495
-0.0560592
-0.0555038
-0.0549142
-0.0543258
-0.0537408
-0.0531586
-0.0525605
-0.0519356
-0.0513059
-0.0508021
-0.081486
-0.0808975
-0.0803262
-0.0797395
-0.0791604
-0.0785982
-0.0780098
-0.0774346
-0.0768674
-0.0763016
-0.0757129
-0.0751405
-0.0745741
-0.074016
-0.0734311
-0.0728686
-0.0722791
-0.0717454
-0.0711428
-0.0706011
-0.0700273
-0.0694716
-0.0688916
-0.0683381
-0.0677846
-0.0672057
-0.0666352
-0.0660929
-0.0655275
-0.0649762
-0.064403
-0.0638332
-0.0632995
-0.0627331
-0.0621681
-0.0616107
-0.0610416
-0.0604844
-0.0599453
-0.0593683
-0.0588148
-0.0582467
-0.0576752
-0.0571086
-0.0565524
-0.0559606
-0.055403
-0.0548122
-0.054222
-0.0536352
-0.0530516
-0.0524527
-0.0518295
-0.0511898
-0.0507038
-0.0813011
-0.0807166
-0.0801486
-0.0795663
-0.0789905
-0.0784313
-0.077847
-0.0772751
-0.0767107
-0.0761479
-0.0755632
-0.0749937
-0.0744298
-0.0738744
-0.0732928
-0.0727331
-0.0721465
-0.0716144
-0.0710157
-0.0704752
-0.0699041
-0.0693504
-0.0687732
-0.0682209
-0.0676692
-0.067093
-0.066524
-0.0659828
-0.065419
-0.0648688
-0.0642976
-0.0637287
-0.063195
-0.06263
-0.0620655
-0.0615085
-0.06094
-0.0603824
-0.0598429
-0.059266
-0.0587116
-0.058143
-0.0575708
-0.0570028
-0.0564454
-0.0558526
-0.0552931
-0.0547013
-0.0541099
-0.0535217
-0.052937
-0.0523373
-0.0517164
-0.0510669
-0.0505966
-0.081096
-0.080516
-0.0799515
-0.0793738
-0.0788018
-0.0782456
-0.077666
-0.0770975
-0.0765361
-0.0759767
-0.0753963
-0.07483
-0.0742689
-0.0737163
-0.0731384
-0.0725816
-0.0719984
-0.0714677
-0.0708735
-0.0703342
-0.0697661
-0.0692145
-0.0686403
-0.0680896
-0.0675398
-0.0669665
-0.0663994
-0.0658592
-0.0652973
-0.0647483
-0.0641792
-0.0636115
-0.0630779
-0.0625144
-0.0619508
-0.0613943
-0.0608267
-0.0602688
-0.0597289
-0.0591526
-0.0585974
-0.0580286
-0.057456
-0.0568869
-0.0563286
-0.0557352
-0.0551741
-0.0545818
-0.0539895
-0.0534003
-0.0528148
-0.0522144
-0.0515963
-0.0509377
-0.0504807
-0.0808707
-0.0802956
-0.0797349
-0.0791621
-0.0785941
-0.0780413
-0.0774665
-0.0769019
-0.0763438
-0.0757878
-0.075212
-0.0746493
-0.0740911
-0.0735415
-0.0729676
-0.0724139
-0.0718345
-0.0713053
-0.0707159
-0.0701781
-0.0696131
-0.0690638
-0.068493
-0.0679439
-0.0673961
-0.0668261
-0.0662611
-0.065722
-0.0651623
-0.0646145
-0.0640478
-0.0634816
-0.0629482
-0.0623864
-0.0618238
-0.061268
-0.0607016
-0.0601437
-0.0596035
-0.0590281
-0.0584724
-0.0579037
-0.0573311
-0.0567611
-0.0562021
-0.0556088
-0.0550463
-0.054454
-0.0538612
-0.0532713
-0.0526853
-0.0520842
-0.0514693
-0.0508028
-0.0503564
-0.0806257
-0.0800557
-0.0794991
-0.0789315
-0.0783679
-0.0778184
-0.0772488
-0.0766883
-0.0761337
-0.0755814
-0.0750105
-0.0744515
-0.0738966
-0.0733501
-0.0727805
-0.07223
-0.0716549
-0.0711272
-0.0705429
-0.0700067
-0.0694451
-0.0688983
-0.0683311
-0.0677839
-0.0672382
-0.0666717
-0.0661092
-0.0655712
-0.0650139
-0.0644675
-0.0639035
-0.0633391
-0.0628059
-0.0622461
-0.0616848
-0.06113
-0.0605649
-0.0600074
-0.059467
-0.0588928
-0.0583369
-0.0577685
-0.0571963
-0.0566259
-0.0560664
-0.0554736
-0.05491
-0.054318
-0.0537253
-0.053135
-0.0525487
-0.0519472
-0.0513358
-0.0506627
-0.0502243
-0.0803615
-0.079797
-0.0792446
-0.0786824
-0.0781235
-0.0775777
-0.0770134
-0.0764572
-0.0759064
-0.0753579
-0.0747922
-0.0742372
-0.0736858
-0.0731424
-0.0725774
-0.0720304
-0.0714598
-0.0709337
-0.0703549
-0.0698205
-0.0692625
-0.0687183
-0.0681549
-0.0676098
-0.0670664
-0.0665036
-0.0659438
-0.0654072
-0.0648524
-0.0643076
-0.0637464
-0.0631842
-0.0626513
-0.0620936
-0.061534
-0.0609803
-0.060417
-0.0598601
-0.0593196
-0.0587469
-0.0581911
-0.0576235
-0.057052
-0.0564816
-0.0559219
-0.05533
-0.0547656
-0.0541744
-0.0535821
-0.0529918
-0.0524056
-0.0518038
-0.0511961
-0.0505181
-0.0500848
-0.0800791
-0.0795203
-0.0789724
-0.0784157
-0.0778617
-0.0773197
-0.0767609
-0.0762094
-0.0756625
-0.075118
-0.0745576
-0.0740068
-0.0734591
-0.0729191
-0.072359
-0.0718155
-0.0712498
-0.0707253
-0.0701522
-0.0696197
-0.0690656
-0.0685241
-0.0679648
-0.0674221
-0.066881
-0.0663221
-0.0657654
-0.0652302
-0.0646781
-0.0641352
-0.0635771
-0.0630173
-0.0624849
-0.0619296
-0.0613719
-0.0608196
-0.0602582
-0.0597022
-0.0591618
-0.0585911
-0.0580357
-0.0574691
-0.0568986
-0.0563287
-0.055769
-0.0551786
-0.0546138
-0.0540237
-0.0534322
-0.0528422
-0.0522565
-0.0516546
-0.0510508
-0.0503695
-0.0499388
-0.0797795
-0.0792266
-0.0786834
-0.0781324
-0.0775835
-0.0770454
-0.0764924
-0.0759456
-0.0754028
-0.0748624
-0.0743076
-0.0737612
-0.0732174
-0.0726809
-0.0721258
-0.0715859
-0.0710254
-0.0705027
-0.0699355
-0.0694051
-0.068855
-0.0683164
-0.0677614
-0.0672212
-0.0666827
-0.0661278
-0.0655744
-0.0650409
-0.0644918
-0.0639509
-0.0633959
-0.062839
-0.0623072
-0.0617544
-0.0611989
-0.0606483
-0.0600892
-0.0595344
-0.0589943
-0.0584258
-0.0578711
-0.0573059
-0.0567369
-0.0561678
-0.0556084
-0.0550199
-0.054455
-0.0538664
-0.0532762
-0.0526869
-0.052102
-0.0515004
-0.0509005
-0.0502178
-0.0497871
-0.0794642
-0.0789173
-0.0783789
-0.0778337
-0.07729
-0.0767561
-0.0762088
-0.0756669
-0.0751285
-0.0745923
-0.0740431
-0.0735013
-0.0729616
-0.0724286
-0.0718787
-0.0713427
-0.0707876
-0.0702667
-0.0697056
-0.0691775
-0.0686316
-0.068096
-0.0675455
-0.067008
-0.0664722
-0.0659215
-0.0653717
-0.06484
-0.064294
-0.0637552
-0.0632037
-0.0626498
-0.0621189
-0.0615688
-0.0610158
-0.0604671
-0.0599105
-0.0593573
-0.0588178
-0.0582518
-0.0576982
-0.0571347
-0.0565675
-0.0559995
-0.0554408
-0.0548546
-0.05429
-0.0537033
-0.0531148
-0.0525266
-0.0519427
-0.0513419
-0.0507459
-0.0500636
-0.0496307
-0.0791345
-0.0785938
-0.0780603
-0.0775209
-0.0769826
-0.0764529
-0.0759115
-0.0753746
-0.0748407
-0.0743088
-0.0737653
-0.0732283
-0.0726929
-0.0721635
-0.071619
-0.0710868
-0.0705372
-0.0700183
-0.0694635
-0.0689379
-0.0683962
-0.0678638
-0.0673179
-0.0667834
-0.0662503
-0.065704
-0.065158
-0.0646282
-0.0640855
-0.0635492
-0.0630012
-0.0624507
-0.0619208
-0.0613736
-0.0608234
-0.0602768
-0.059723
-0.0591717
-0.058633
-0.0580698
-0.0575176
-0.0569561
-0.056391
-0.0558247
-0.0552669
-0.0546835
-0.0541195
-0.0535351
-0.0529486
-0.052362
-0.0517795
-0.0511799
-0.0505877
-0.0499076
-0.0494707
-0.078792
-0.0782574
-0.077729
-0.0771954
-0.0766627
-0.0761373
-0.0756017
-0.07507
-0.0745407
-0.0740133
-0.0734755
-0.0729433
-0.0724123
-0.0718867
-0.0713475
-0.0708194
-0.0702754
-0.0697587
-0.0692101
-0.0686871
-0.0681499
-0.0676208
-0.0670796
-0.0665482
-0.0660182
-0.0654763
-0.0649342
-0.0644066
-0.0638674
-0.0633336
-0.0627894
-0.0622424
-0.0617139
-0.0611697
-0.0606225
-0.0600784
-0.0595275
-0.0589784
-0.0584407
-0.0578807
-0.0573301
-0.056771
-0.0562084
-0.0556441
-0.0550875
-0.0545073
-0.0539443
-0.0533625
-0.0527785
-0.0521938
-0.051613
-0.0510152
-0.0504267
-0.0497505
-0.0493079
-0.0784382
-0.0779098
-0.0773865
-0.0768588
-0.0763316
-0.0758107
-0.075281
-0.0747545
-0.0742299
-0.0737069
-0.0731749
-0.0726476
-0.0721211
-0.0715994
-0.0710657
-0.0705416
-0.0700034
-0.069489
-0.0689466
-0.0684265
-0.0678937
-0.0673681
-0.0668316
-0.0663036
-0.0657767
-0.0652393
-0.0647014
-0.0641761
-0.0636405
-0.0631095
-0.0625691
-0.0620259
-0.0614989
-0.060958
-0.060414
-0.0598725
-0.0593249
-0.0587783
-0.0582419
-0.0576853
-0.0571367
-0.0565803
-0.0560204
-0.0554585
-0.0549035
-0.0543267
-0.0537652
-0.0531864
-0.0526052
-0.0520228
-0.0514442
-0.0508485
-0.0502637
-0.049593
-0.0491436
-0.0780746
-0.0775523
-0.0770343
-0.0765124
-0.0759908
-0.0754745
-0.0749506
-0.0744293
-0.0739095
-0.0733911
-0.0728649
-0.0723425
-0.0718205
-0.0713028
-0.0707746
-0.0702547
-0.0697222
-0.0692104
-0.0686741
-0.0681571
-0.0676289
-0.0671068
-0.0665751
-0.0660506
-0.0655269
-0.0649941
-0.0644605
-0.0639378
-0.0634059
-0.0628778
-0.0623414
-0.0618021
-0.061277
-0.0607395
-0.0601989
-0.0596603
-0.0591161
-0.0585723
-0.0580375
-0.0574845
-0.0569383
-0.0563848
-0.055828
-0.0552687
-0.0547156
-0.0541427
-0.053583
-0.0530074
-0.0524294
-0.0518498
-0.0512736
-0.0506807
-0.0500996
-0.0494355
-0.0489786
-0.0777027
-0.0771865
-0.0766737
-0.0761576
-0.0756416
-0.07513
-0.0746119
-0.0740958
-0.0735809
-0.0730671
-0.0725466
-0.0720292
-0.0715119
-0.0709983
-0.0704755
-0.0699598
-0.0694331
-0.068924
-0.0683938
-0.06788
-0.0673564
-0.066838
-0.0663112
-0.0657903
-0.0652701
-0.0647418
-0.0642125
-0.0636926
-0.0631646
-0.0626396
-0.0621073
-0.061572
-0.0610491
-0.0605151
-0.0599781
-0.0594426
-0.0589019
-0.0583613
-0.0578284
-0.0572791
-0.0567356
-0.0561853
-0.0556318
-0.0550756
-0.0545247
-0.0539559
-0.0533984
-0.0528265
-0.052252
-0.0516755
-0.0511021
-0.0505125
-0.049935
-0.0492788
-0.0488139
-0.0773239
-0.0768137
-0.0763062
-0.0757958
-0.0752854
-0.0747785
-0.0742661
-0.0737553
-0.0732453
-0.0727362
-0.0722214
-0.0717089
-0.0711964
-0.0706869
-0.0701696
-0.0696582
-0.0691371
-0.068631
-0.0681068
-0.0675963
-0.0670775
-0.0665629
-0.0660409
-0.0655237
-0.0650071
-0.0644834
-0.0639586
-0.0634416
-0.0629175
-0.0623959
-0.0618676
-0.0613367
-0.0608161
-0.0602857
-0.0597524
-0.0592204
-0.0586834
-0.0581461
-0.0576153
-0.0570701
-0.0565294
-0.0559826
-0.0554327
-0.0548799
-0.0543316
-0.0537671
-0.0532121
-0.0526441
-0.0520735
-0.0515005
-0.0509303
-0.0503445
-0.0497707
-0.0491232
-0.0486504
-0.0769393
-0.0764351
-0.0759329
-0.0754282
-0.0749233
-0.0744212
-0.0739145
-0.073409
-0.072904
-0.0723996
-0.0718903
-0.0713829
-0.0708752
-0.0703699
-0.0698579
-0.0693509
-0.0688355
-0.0683325
-0.0678141
-0.0673072
-0.066793
-0.0662823
-0.0657652
-0.0652519
-0.0647389
-0.0642198
-0.0636996
-0.0631858
-0.0626657
-0.0621475
-0.0616235
-0.0610968
-0.0605788
-0.0600523
-0.0595229
-0.0589944
-0.0584613
-0.0579275
-0.0573993
-0.0568582
-0.0563207
-0.0557776
-0.0552314
-0.0546823
-0.0541369
-0.0535769
-0.0530249
-0.0524611
-0.0518946
-0.0513256
-0.0507588
-0.0501773
-0.0496073
-0.0489693
-0.0484888
-0.0765501
-0.0760518
-0.0755549
-0.0750559
-0.0745565
-0.0740593
-0.0735582
-0.0730579
-0.0725578
-0.0720582
-0.0715545
-0.071052
-0.0705491
-0.0700482
-0.0695416
-0.0690389
-0.068529
-0.0680294
-0.0675168
-0.0670136
-0.0665041
-0.0659974
-0.0654851
-0.0649758
-0.0644666
-0.0639521
-0.0634364
-0.062926
-0.06241
-0.0618954
-0.0613757
-0.0608534
-0.0603383
-0.0598157
-0.0592903
-0.0587655
-0.0582365
-0.0577064
-0.0571809
-0.0566441
-0.05611
-0.0555709
-0.0550287
-0.0544835
-0.0539412
-0.0533861
-0.0528374
-0.052278
-0.051716
-0.0511512
-0.0505881
-0.0500114
-0.0494453
-0.0488173
-0.0483298
-0.0761573
-0.0756649
-0.0751732
-0.0746799
-0.074186
-0.0736936
-0.0731981
-0.072703
-0.0722079
-0.0717131
-0.0712148
-0.0707173
-0.0702193
-0.0697227
-0.0692214
-0.0687232
-0.0682188
-0.0677226
-0.0672157
-0.0667163
-0.0662115
-0.0657089
-0.0652014
-0.0646962
-0.0641909
-0.0636811
-0.06317
-0.062663
-0.0621513
-0.0616404
-0.061125
-0.0606072
-0.0600952
-0.0595766
-0.0590554
-0.0585344
-0.0580096
-0.0574834
-0.0569609
-0.0564285
-0.0558981
-0.0553631
-0.0548252
-0.0542841
-0.0537453
-0.0531951
-0.05265
-0.0520954
-0.051538
-0.0509778
-0.0504188
-0.0498471
-0.0492852
-0.0486675
-0.0481737
-0.0757618
-0.0752751
-0.0747888
-0.0743009
-0.0738125
-0.0733251
-0.072835
-0.0723451
-0.071855
-0.0713651
-0.0708721
-0.0703797
-0.0698865
-0.0693943
-0.0688982
-0.0684045
-0.0679055
-0.0674131
-0.0669116
-0.0664161
-0.0659161
-0.0654176
-0.064915
-0.064414
-0.0639126
-0.0634075
-0.062901
-0.0623976
-0.0618902
-0.0613832
-0.0608722
-0.0603589
-0.0598501
-0.0593357
-0.0588188
-0.0583018
-0.0577812
-0.0572592
-0.0567399
-0.0562121
-0.0556856
-0.0551548
-0.0546213
-0.0540846
-0.0535495
-0.0530044
-0.0524633
-0.0519135
-0.0513611
-0.0508057
-0.0502512
-0.049685
-0.0491274
-0.0485201
-0.0480211
-0.0753643
-0.0748832
-0.0744022
-0.0739199
-0.0734368
-0.0729544
-0.0724697
-0.071985
-0.0715
-0.0710148
-0.0705272
-0.0700397
-0.0695514
-0.0690638
-0.0685728
-0.0680836
-0.06759
-0.0671013
-0.0666053
-0.0661139
-0.0656185
-0.0651243
-0.0646264
-0.0641297
-0.0636324
-0.0631319
-0.0626301
-0.0621305
-0.0616274
-0.0611244
-0.0606178
-0.0601091
-0.0596039
-0.0590936
-0.0585811
-0.0580682
-0.057552
-0.0570342
-0.0565184
-0.0559953
-0.0554728
-0.0549465
-0.0544175
-0.0538854
-0.0533543
-0.0528145
-0.0522775
-0.0517329
-0.0511856
-0.0506353
-0.0500855
-0.049525
-0.0489721
-0.0483753
-0.047872
-0.0749654
-0.0744899
-0.0740142
-0.0735373
-0.0730596
-0.0725822
-0.0721029
-0.0716234
-0.0711433
-0.070663
-0.0701807
-0.0696981
-0.0692147
-0.0687316
-0.0682458
-0.0677612
-0.0672727
-0.066788
-0.0662974
-0.0658101
-0.0653195
-0.0648295
-0.0643364
-0.063844
-0.0633509
-0.0628551
-0.0623579
-0.0618622
-0.0613635
-0.0608646
-0.0603625
-0.0598583
-0.0593568
-0.0588509
-0.0583428
-0.0578341
-0.0573224
-0.056809
-0.0562969
-0.0557785
-0.0552603
-0.0547386
-0.0542142
-0.0536868
-0.05316
-0.0526256
-0.052093
-0.0515537
-0.0510117
-0.0504668
-0.0499219
-0.0493675
-0.0488194
-0.0482331
-0.0477267
-0.0745657
-0.0740957
-0.0736253
-0.0731538
-0.0726814
-0.072209
-0.071735
-0.0712606
-0.0707855
-0.0703102
-0.069833
-0.0693554
-0.0688768
-0.0683984
-0.0679176
-0.0674376
-0.0669543
-0.0664738
-0.0659883
-0.0655052
-0.0650193
-0.0645337
-0.0640455
-0.0635574
-0.0630686
-0.0625774
-0.0620848
-0.0615932
-0.0610989
-0.0606042
-0.0601066
-0.0596071
-0.0591094
-0.0586079
-0.0581043
-0.0576
-0.0570929
-0.0565839
-0.0560758
-0.0555622
-0.0550484
-0.0545314
-0.0540118
-0.0534893
-0.0529669
-0.0524379
-0.0519101
-0.0513761
-0.0508396
-0.0503003
-0.0497606
-0.0492124
-0.0486694
-0.0480934
-0.0475851
-0.0741655
-0.073701
-0.0732359
-0.0727697
-0.0723026
-0.0718352
-0.0713665
-0.0708972
-0.0704272
-0.0699567
-0.0694847
-0.069012
-0.0685383
-0.0680645
-0.0675888
-0.0671134
-0.0666353
-0.0661589
-0.0656785
-0.0651998
-0.0647186
-0.0642375
-0.0637539
-0.0632703
-0.0627858
-0.0622993
-0.0618114
-0.0613239
-0.0608341
-0.0603436
-0.0598506
-0.0593558
-0.0588621
-0.0583651
-0.057866
-0.0573662
-0.0568637
-0.0563593
-0.0558553
-0.0553465
-0.0548373
-0.0543251
-0.0538105
-0.0532929
-0.0527752
-0.0522517
-0.0517288
-0.0512004
-0.0506695
-0.0501359
-0.0496016
-0.0490598
-0.0485221
-0.0479563
-0.0474472
-0.0737652
-0.0733062
-0.0728463
-0.0723854
-0.0719236
-0.0714613
-0.0709978
-0.0705336
-0.0700685
-0.069603
-0.0691361
-0.0686684
-0.0681995
-0.0677304
-0.0672597
-0.0667889
-0.0663158
-0.0658438
-0.0653685
-0.0648942
-0.0644177
-0.063941
-0.0634622
-0.062983
-0.062503
-0.0620211
-0.0615379
-0.0610546
-0.0605694
-0.0600833
-0.0595948
-0.0591047
-0.0586152
-0.0581227
-0.0576282
-0.0571329
-0.0566351
-0.0561353
-0.0556356
-0.0551318
-0.0546272
-0.05412
-0.0536104
-0.0530979
-0.052585
-0.0520671
-0.0515492
-0.0510265
-0.0505013
-0.0499736
-0.0494449
-0.0489096
-0.0483775
-0.0478215
-0.0473127
-0.0733651
-0.0729115
-0.0724569
-0.0720013
-0.0715447
-0.0710874
-0.0706291
-0.07017
-0.0697099
-0.0692493
-0.0687874
-0.0683247
-0.0678607
-0.0673963
-0.0669305
-0.0664645
-0.0659964
-0.0655287
-0.0650584
-0.0645886
-0.0641168
-0.0636446
-0.0631706
-0.0626959
-0.0622203
-0.0617431
-0.0612646
-0.0607857
-0.060305
-0.0598233
-0.0593395
-0.0588541
-0.0583688
-0.0578809
-0.0573911
-0.0569004
-0.0564074
-0.0559123
-0.055417
-0.0549182
-0.0544184
-0.0539161
-0.0534116
-0.0529043
-0.0523964
-0.0518842
-0.0513715
-0.0508545
-0.0503351
-0.0498133
-0.0492904
-0.0487617
-0.0482354
-0.047689
-0.0471814
-0.0729655
-0.0725172
-0.0720678
-0.0716175
-0.0711661
-0.0707139
-0.0702607
-0.0698067
-0.0693516
-0.0688959
-0.0684391
-0.0679812
-0.0675221
-0.0670625
-0.0666016
-0.0661403
-0.0656771
-0.0652139
-0.0647486
-0.0642833
-0.0638163
-0.0633486
-0.0628793
-0.0624092
-0.0619381
-0.0614656
-0.0609917
-0.0605172
-0.0600411
-0.0595639
-0.0590848
-0.0586041
-0.0581232
-0.0576399
-0.0571549
-0.0566689
-0.0561806
-0.0556903
-0.0551996
-0.0547058
-0.0542108
-0.0537137
-0.0532143
-0.0527122
-0.0522094
-0.0517028
-0.0511955
-0.0506843
-0.0501708
-0.0496551
-0.0491381
-0.048616
-0.0480957
-0.0475585
-0.0470531
-0.0725665
-0.0721235
-0.0716793
-0.0712342
-0.070788
-0.0703408
-0.0698928
-0.0694438
-0.0689938
-0.068543
-0.0680912
-0.0676382
-0.067184
-0.0667291
-0.0662732
-0.0658166
-0.0653583
-0.0648996
-0.0644393
-0.0639785
-0.0635162
-0.0630531
-0.0625885
-0.062123
-0.0616565
-0.0611886
-0.0607195
-0.0602494
-0.059778
-0.0593053
-0.0588309
-0.0583549
-0.0578785
-0.0573999
-0.0569196
-0.0564383
-0.0559549
-0.0554695
-0.0549834
-0.0544947
-0.0540047
-0.0535126
-0.0530184
-0.0525217
-0.0520241
-0.0515232
-0.0510213
-0.0505159
-0.0500084
-0.0494988
-0.0489878
-0.0484723
-0.0479581
-0.0474299
-0.0469274
-0.0721683
-0.0717306
-0.0712916
-0.0708516
-0.0704106
-0.0699685
-0.0695256
-0.0690816
-0.0686365
-0.0681907
-0.0677438
-0.0672958
-0.0668465
-0.0663964
-0.0659453
-0.0654935
-0.0650401
-0.064586
-0.0641305
-0.0636743
-0.0632167
-0.0627583
-0.0622984
-0.0618375
-0.0613756
-0.0609124
-0.060448
-0.0599825
-0.0595156
-0.0590476
-0.0585778
-0.0581067
-0.0576348
-0.057161
-0.0566854
-0.0562089
-0.0557304
-0.0552498
-0.0547685
-0.0542849
-0.0537999
-0.053313
-0.0528241
-0.0523327
-0.0518403
-0.0513451
-0.0508487
-0.0503492
-0.0498477
-0.0493442
-0.0488393
-0.0483305
-0.0478225
-0.0473029
-0.046804
-0.0717709
-0.0713385
-0.0709047
-0.0704699
-0.070034
-0.069597
-0.0691591
-0.0687202
-0.0682801
-0.0678391
-0.0673973
-0.0669541
-0.0665097
-0.0660643
-0.0656182
-0.0651711
-0.0647226
-0.0642731
-0.0638224
-0.0633709
-0.062918
-0.0624643
-0.0620091
-0.0615529
-0.0610955
-0.0606371
-0.0601773
-0.0597164
-0.0592543
-0.0587908
-0.0583258
-0.0578594
-0.0573921
-0.0569231
-0.0564524
-0.0559807
-0.055507
-0.0550314
-0.054555
-0.0540764
-0.0535964
-0.0531147
-0.0526311
-0.0521451
-0.0516581
-0.0511686
-0.0506778
-0.0501842
-0.0496887
-0.0491913
-0.0486925
-0.0481904
-0.0476886
-0.0471774
-0.0466827
-0.0713746
-0.0709474
-0.0705187
-0.0700891
-0.0696583
-0.0692263
-0.0687935
-0.0683596
-0.0679244
-0.0674884
-0.0670515
-0.0666133
-0.0661737
-0.0657331
-0.0652918
-0.0648495
-0.0644058
-0.063961
-0.0635152
-0.0630683
-0.0626202
-0.0621711
-0.0617207
-0.0612691
-0.0608164
-0.0603626
-0.0599076
-0.0594513
-0.0589939
-0.0585351
-0.0580748
-0.0576132
-0.0571506
-0.0566863
-0.0562205
-0.0557536
-0.0552849
-0.0548143
-0.0543427
-0.0538693
-0.0533944
-0.0529179
-0.0524396
-0.051959
-0.0514774
-0.0509936
-0.0505084
-0.0500206
-0.0495311
-0.0490399
-0.0485473
-0.0480517
-0.0475562
-0.0470531
-0.046563
-0.0709793
-0.0705573
-0.0701338
-0.0697093
-0.0692836
-0.0688566
-0.0684289
-0.0679999
-0.0675698
-0.0671386
-0.0667067
-0.0662733
-0.0658386
-0.0654029
-0.0649664
-0.0645288
-0.06409
-0.0636499
-0.0632089
-0.0627667
-0.0623233
-0.0618788
-0.0614332
-0.0609862
-0.0605382
-0.0600892
-0.0596389
-0.0591872
-0.0587345
-0.0582804
-0.0578249
-0.0573681
-0.0569102
-0.0564507
-0.0559897
-0.0555278
-0.055064
-0.0545983
-0.0541317
-0.0536634
-0.0531936
-0.0527224
-0.0522494
-0.0517742
-0.051298
-0.0508199
-0.0503403
-0.0498585
-0.0493749
-0.0488899
-0.0484033
-0.0479143
-0.0474251
-0.0469297
-0.0464447
-0.0705852
-0.0701684
-0.06975
-0.0693306
-0.06891
-0.068488
-0.0680653
-0.0676413
-0.0672161
-0.0667899
-0.0663628
-0.0659343
-0.0655044
-0.0650735
-0.0646419
-0.0642091
-0.0637751
-0.0633397
-0.0629035
-0.062466
-0.0620273
-0.0615875
-0.0611466
-0.0607044
-0.060261
-0.0598167
-0.0593712
-0.0589242
-0.0584762
-0.0580268
-0.0575761
-0.0571241
-0.0566709
-0.0562163
-0.0557602
-0.0553031
-0.0548443
-0.0543836
-0.0539219
-0.0534588
-0.0529942
-0.0525282
-0.0520605
-0.0515908
-0.0511199
-0.0506475
-0.0501736
-0.0496975
-0.04922
-0.048741
-0.0482606
-0.047778
-0.0472951
-0.0468072
-0.0463275
-0.0701923
-0.0697806
-0.0693673
-0.068953
-0.0685374
-0.0681205
-0.0677027
-0.0672838
-0.0668634
-0.0664422
-0.06602
-0.0655964
-0.0651713
-0.0647452
-0.0643184
-0.0638904
-0.0634612
-0.0630305
-0.0625991
-0.0621663
-0.0617323
-0.0612973
-0.0608611
-0.0604236
-0.0599849
-0.0595453
-0.0591045
-0.0586622
-0.0582189
-0.0577743
-0.0573284
-0.0568812
-0.0564328
-0.055983
-0.0555317
-0.0550796
-0.0546257