/*--------------------------------*- C++ -*----------------------------------*\
| =========                 |                                                 |
| \\      /  F ield         | OpenFOAM: The Open Source CFD Toolbox           |
|  \\    /   O peration     | Version:  2412                                  |
|   \\  /    A nd           | Website:  www.openfoam.com                      |
|    \\/     M anipulation  |                                                 |
\*---------------------------------------------------------------------------*/
FoamFile
{
    version     2.0;
    format      ascii;
    arch        "LSB;label=32;scalar=64";
    class       volScalarField;
    location    "2";
    object      p;
}
// * * * * * * * * * * * * * * * * * * * * * * * * * * * * * * * * * * * * * //

dimensions      [0 2 -2 0 0 0 0];

internalField   nonuniform List<scalar> 
64350
(
-0.0531187
-0.0526973
-0.0527385
-0.0534049
-0.0492528
-0.0449862
-0.0411838
-0.038044
-0.0350756
-0.0323485
-0.0297998
-0.0274202
-0.0251951
-0.0231148
-0.0211706
-0.0193549
-0.0176607
-0.0160814
-0.0146109
-0.0132431
-0.0119724
-0.0107932
-0.00970025
-0.00868844
-0.00775287
-0.00688888
-0.00609199
-0.0053579
-0.00468256
-0.00406208
-0.00349279
-0.00297121
-0.00249404
-0.00205818
-0.0016607
-0.00129884
-0.000970016
-0.000671798
-0.000401907
-0.000158212
6.12823e-05
0.000258437
0.000434991
0.000592565
0.000732669
0.000856708
0.000965989
0.00106173
0.00114505
0.00121701
0.00127857
0.00133064
0.00137404
0.00140956
0.0014379
0.00145973
0.00147566
0.00148626
0.00149203
0.00149347
0.00149102
0.00148509
0.00147604
0.00146424
0.00144999
0.00143359
0.00141531
0.00139539
0.00137407
0.00135154
0.001328
0.00130361
0.00127855
0.00125294
0.00122693
0.00120063
0.00117415
0.00114759
0.00112104
0.00109456
0.00106825
0.00104216
0.00101635
0.000990863
0.000965755
0.000941061
0.000916817
0.000893051
0.000869792
0.00084706
0.000824876
0.000803251
0.0007822
0.000761732
0.000741853
0.000722569
0.000703881
0.000685789
0.000668292
0.000651387
0.00063507
0.000619333
0.000604169
0.000589569
0.000575524
0.000562024
0.000549055
0.000536607
0.000524664
0.000513213
0.000502241
0.000491731
0.000481668
0.000472033
0.000462813
0.000453987
0.00044554
0.000437452
0.000429705
0.00042228
0.000415157
0.000408318
0.000401741
0.000395409
0.000389295
0.000383384
0.00037765
0.000372077
0.000366637
0.000361311
0.000356072
0.0003509
0.000345769
0.000340656
0.000335537
0.000330383
0.000325168
0.000319873
0.000314449
0.000308911
0.000303156
0.000297267
0.000291046
0.000284701
0.00027785
0.000270961
0.000263271
0.000255785
0.00024697
0.000238921
-0.0818548
-0.0812543
-0.0806393
-0.0800419
-0.0794518
-0.0788381
-0.0782448
-0.0776573
-0.0770631
-0.076452
-0.0758616
-0.0752774
-0.0746932
-0.0740897
-0.0735023
-0.0729032
-0.0723398
-0.0717255
-0.0711673
-0.0705772
-0.0700014
-0.0694095
-0.0688437
-0.0682679
-0.067674
-0.067098
-0.0665395
-0.0659643
-0.0653983
-0.0648137
-0.0642441
-0.0636963
-0.063121
-0.0625529
-0.0619884
-0.0614189
-0.0608666
-0.0603204
-0.0597517
-0.059202
-0.0586399
-0.058081
-0.0575308
-0.0569831
-0.0564188
-0.0558762
-0.0553059
-0.0547386
-0.0541822
-0.0536423
-0.0531187
-0.0526973
-0.0527385
-0.0534049
-0.0818522
-0.0812523
-0.0806401
-0.0800418
-0.0794505
-0.0788402
-0.078246
-0.0776569
-0.0770639
-0.0764574
-0.0758668
-0.0752807
-0.074696
-0.0740964
-0.0735104
-0.072914
-0.0723476
-0.0717394
-0.0711761
-0.0705878
-0.0700121
-0.0694229
-0.0688549
-0.0682803
-0.0676915
-0.067116
-0.0665545
-0.06598
-0.0654146
-0.0648344
-0.064265
-0.0637138
-0.0631412
-0.0625754
-0.062013
-0.0614457
-0.0608916
-0.0603436
-0.059778
-0.0592288
-0.0586705
-0.0581146
-0.0575659
-0.057021
-0.0564645
-0.0559287
-0.0553774
-0.0548359
-0.0543006
-0.0537856
-0.0532785
-0.0528193
-0.0525678
-0.0523358
-0.0818476
-0.081249
-0.080637
-0.0800391
-0.079449
-0.0788385
-0.0782447
-0.0776562
-0.0770641
-0.0764576
-0.0758676
-0.075282
-0.0746983
-0.0740987
-0.0735139
-0.072917
-0.0723528
-0.071743
-0.0711817
-0.0705931
-0.0700185
-0.0694288
-0.0688619
-0.0682884
-0.0676994
-0.0671242
-0.0665639
-0.0659893
-0.0654251
-0.0648447
-0.0642754
-0.0637259
-0.0631532
-0.062588
-0.0620265
-0.0614592
-0.0609056
-0.060359
-0.059793
-0.0592454
-0.0586878
-0.0581328
-0.0575857
-0.0570431
-0.0564876
-0.0559557
-0.0554062
-0.0548678
-0.0543406
-0.0538115
-0.0532977
-0.0527938
-0.052367
-0.0518004
-0.0818405
-0.0812434
-0.0806316
-0.0800342
-0.0794455
-0.0788348
-0.0782414
-0.0776539
-0.0770628
-0.076456
-0.0758667
-0.0752819
-0.0746993
-0.0740997
-0.073516
-0.0729186
-0.072357
-0.0717455
-0.0711862
-0.0705975
-0.0700239
-0.0694338
-0.0688681
-0.0682957
-0.0677064
-0.0671315
-0.0665726
-0.065998
-0.0654349
-0.0648543
-0.0642851
-0.0637376
-0.0631648
-0.0626
-0.0620394
-0.061472
-0.0609191
-0.060374
-0.0598076
-0.0592614
-0.0587044
-0.0581501
-0.0576044
-0.0570638
-0.0565087
-0.0559798
-0.0554311
-0.0548926
-0.0543643
-0.0538413
-0.0532866
-0.0527406
-0.0522302
-0.0515564
-0.081829
-0.0812334
-0.0806218
-0.080025
-0.0794378
-0.078827
-0.0782342
-0.0776476
-0.0770577
-0.0764507
-0.075862
-0.0752781
-0.0746969
-0.0740971
-0.0735145
-0.0729167
-0.0723577
-0.0717446
-0.0711873
-0.0705987
-0.0700261
-0.0694356
-0.0688711
-0.0682999
-0.0677102
-0.0671355
-0.0665782
-0.0660037
-0.0654417
-0.0648609
-0.0642917
-0.0637461
-0.0631733
-0.0626088
-0.0620489
-0.0614813
-0.0609291
-0.0603856
-0.0598186
-0.0592735
-0.0587168
-0.0581627
-0.0576176
-0.0570782
-0.0565222
-0.0559943
-0.055444
-0.0549022
-0.0543668
-0.0538339
-0.0532796
-0.0526797
-0.0521301
-0.0514202
-0.081812
-0.0812177
-0.0806066
-0.0800103
-0.0794248
-0.078814
-0.0782218
-0.0776364
-0.0770476
-0.0764406
-0.0758525
-0.0752696
-0.0746898
-0.07409
-0.0735084
-0.0729103
-0.0723538
-0.0717394
-0.0711839
-0.0705955
-0.070024
-0.0694332
-0.0688699
-0.0683
-0.0677099
-0.0671352
-0.0665795
-0.0660052
-0.0654443
-0.0648633
-0.064294
-0.0637503
-0.0631776
-0.0626133
-0.062054
-0.0614862
-0.0609345
-0.0603924
-0.0598247
-0.0592804
-0.0587237
-0.0581692
-0.0576241
-0.0570849
-0.0565268
-0.0559984
-0.0554449
-0.0548986
-0.0543565
-0.0538134
-0.053249
-0.0526604
-0.0520643
-0.0513345
-0.0817882
-0.0811954
-0.0805849
-0.0799893
-0.0794054
-0.078795
-0.0782034
-0.0776191
-0.0770317
-0.0764247
-0.0758373
-0.0752555
-0.0746771
-0.0740774
-0.073497
-0.0728985
-0.0723444
-0.0717291
-0.0711753
-0.0705873
-0.0700169
-0.069426
-0.0688637
-0.068295
-0.0677048
-0.0671302
-0.066576
-0.066002
-0.0654421
-0.064861
-0.0642916
-0.0637497
-0.063177
-0.0626128
-0.0620539
-0.061486
-0.0609346
-0.0603937
-0.0598252
-0.0592813
-0.0587241
-0.0581688
-0.0576229
-0.0570832
-0.0565223
-0.0559922
-0.0554344
-0.0548828
-0.0543341
-0.0537831
-0.0532071
-0.0526018
-0.0520224
-0.0513252
-0.0817565
-0.0811652
-0.0805556
-0.0799606
-0.0793785
-0.0787687
-0.0781779
-0.0775948
-0.0770088
-0.0764021
-0.0758155
-0.0752347
-0.0746579
-0.0740585
-0.0734792
-0.0728805
-0.0723289
-0.0717128
-0.0711606
-0.0705731
-0.0700039
-0.069413
-0.0688517
-0.0682843
-0.0676941
-0.0671195
-0.0665668
-0.0659932
-0.0654343
-0.0648532
-0.0642835
-0.0637433
-0.0631708
-0.0626065
-0.0620481
-0.0614798
-0.0609285
-0.0603886
-0.0598192
-0.0592752
-0.0587173
-0.0581608
-0.0576136
-0.0570727
-0.0565083
-0.0559758
-0.0554134
-0.0548561
-0.0543012
-0.053744
-0.0531615
-0.0525477
-0.0519648
-0.0512838
-0.0817155
-0.0811259
-0.0805174
-0.0799233
-0.079343
-0.0787341
-0.0781441
-0.0775622
-0.0769778
-0.0763718
-0.0757859
-0.0752063
-0.0746311
-0.0740322
-0.0734541
-0.0728553
-0.0723061
-0.0716897
-0.0711389
-0.0705522
-0.0699841
-0.0693934
-0.068833
-0.068267
-0.067677
-0.0671024
-0.0665512
-0.0659779
-0.06542
-0.0648391
-0.0642691
-0.0637303
-0.0631581
-0.0625937
-0.0620356
-0.061467
-0.0609155
-0.0603764
-0.0598059
-0.0592615
-0.0587026
-0.0581445
-0.0575955
-0.0570532
-0.056485
-0.0559496
-0.0553825
-0.0548196
-0.0542591
-0.0536967
-0.05311
-0.052492
-0.0519074
-0.0512466
-0.0816641
-0.0810761
-0.0804691
-0.079876
-0.0792976
-0.0786899
-0.0781009
-0.0775204
-0.0769377
-0.0763325
-0.0757476
-0.0751691
-0.0745957
-0.0739974
-0.0734208
-0.0728221
-0.0722751
-0.0716588
-0.0711093
-0.0705235
-0.0699567
-0.0693664
-0.0688068
-0.0682422
-0.0676526
-0.0670781
-0.0665282
-0.0659555
-0.0653984
-0.0648178
-0.0642476
-0.0637101
-0.0631382
-0.0625736
-0.0620156
-0.0614467
-0.0608948
-0.0603563
-0.0597847
-0.0592396
-0.0586795
-0.0581196
-0.0575685
-0.0570244
-0.0564522
-0.0559137
-0.0553421
-0.0547741
-0.0542085
-0.0536417
-0.053052
-0.0524312
-0.0518451
-0.0512074
-0.0816007
-0.0810146
-0.0804094
-0.0798174
-0.079241
-0.0786349
-0.078047
-0.0774679
-0.0768872
-0.0762832
-0.0756994
-0.0751222
-0.0745506
-0.0739533
-0.0733782
-0.0727798
-0.072235
-0.0716192
-0.0710709
-0.0704862
-0.0699207
-0.069331
-0.0687722
-0.068209
-0.0676201
-0.0670457
-0.0664971
-0.065925
-0.0653688
-0.0647887
-0.0642182
-0.0636817
-0.0631102
-0.0625454
-0.0619876
-0.0614183
-0.0608658
-0.0603277
-0.0597549
-0.0592089
-0.0586475
-0.0580856
-0.0575322
-0.0569861
-0.0564101
-0.0558685
-0.0552927
-0.0547201
-0.0541499
-0.0535795
-0.0529875
-0.0523645
-0.0517751
-0.0511612
-0.0815241
-0.08094
-0.0803369
-0.0797463
-0.0791719
-0.0785678
-0.0779813
-0.0774038
-0.0768251
-0.0762226
-0.0756401
-0.0750643
-0.0744946
-0.0738986
-0.0733251
-0.0727273
-0.0721847
-0.0715698
-0.0710227
-0.0704392
-0.0698751
-0.0692863
-0.0687282
-0.0681666
-0.0675786
-0.0670044
-0.066457
-0.0658856
-0.0653302
-0.0647507
-0.06418
-0.0636444
-0.0630734
-0.0625083
-0.0619506
-0.0613811
-0.0608279
-0.0602899
-0.059716
-0.0591688
-0.058606
-0.0580421
-0.0574863
-0.0569383
-0.0563587
-0.0558141
-0.0552345
-0.0546577
-0.0540836
-0.05351
-0.0529163
-0.0522916
-0.051697
-0.0511068
-0.0814328
-0.0808508
-0.0802503
-0.0796613
-0.0790891
-0.0784874
-0.0779026
-0.0773267
-0.0767502
-0.0761497
-0.0755687
-0.0749944
-0.0744268
-0.0738322
-0.0732606
-0.0726637
-0.0721231
-0.0715096
-0.0709636
-0.0703816
-0.069819
-0.0692313
-0.068674
-0.0681139
-0.0675272
-0.0669533
-0.066407
-0.0658365
-0.0652818
-0.0647032
-0.0641323
-0.0635974
-0.0630271
-0.0624617
-0.061904
-0.0613343
-0.0607803
-0.0602423
-0.0596674
-0.0591189
-0.0585548
-0.057989
-0.0574308
-0.0568809
-0.056298
-0.0557504
-0.0551676
-0.0545871
-0.0540096
-0.0534334
-0.0528382
-0.0522125
-0.0516108
-0.0510439
-0.0813256
-0.080746
-0.0801483
-0.0795613
-0.0789914
-0.0783924
-0.0778095
-0.0772355
-0.0766614
-0.0760632
-0.075484
-0.0749114
-0.0743459
-0.0737532
-0.0731836
-0.072588
-0.0720492
-0.0714377
-0.0708927
-0.0703124
-0.0697514
-0.0691652
-0.0686087
-0.0680501
-0.0674649
-0.0668916
-0.0663463
-0.0657768
-0.065223
-0.0646454
-0.0640745
-0.06354
-0.0629704
-0.062405
-0.0618473
-0.0612775
-0.0607226
-0.0601844
-0.0596086
-0.0590589
-0.0584935
-0.057926
-0.0573654
-0.0568137
-0.0562278
-0.0556774
-0.0550919
-0.0545083
-0.0539279
-0.0533493
-0.0527531
-0.0521269
-0.0515167
-0.0509721
-0.0812013
-0.0806242
-0.0800298
-0.0794451
-0.0788776
-0.0782817
-0.0777011
-0.0771292
-0.0765576
-0.0759622
-0.0753849
-0.0748142
-0.0742511
-0.0736606
-0.0730932
-0.0724992
-0.0719622
-0.0713531
-0.0708092
-0.0702308
-0.0696715
-0.069087
-0.0685314
-0.0679745
-0.067391
-0.0668184
-0.0662742
-0.0657058
-0.0651528
-0.0645765
-0.0640057
-0.0634716
-0.0629029
-0.0623374
-0.0617798
-0.06121
-0.0606543
-0.0601159
-0.0595394
-0.0589883
-0.0584218
-0.0578527
-0.0572899
-0.0567365
-0.0561482
-0.0555952
-0.0550075
-0.0544212
-0.0538383
-0.0532578
-0.0526605
-0.0520347
-0.051415
-0.0508916
-0.0810588
-0.0804845
-0.0798938
-0.0793117
-0.0787468
-0.0781544
-0.0775764
-0.0770067
-0.0764379
-0.0758457
-0.0752707
-0.074702
-0.0741413
-0.0735535
-0.0729884
-0.0723965
-0.0718611
-0.0712551
-0.0707122
-0.070136
-0.0695784
-0.068996
-0.0684414
-0.0678861
-0.0673048
-0.0667331
-0.0661899
-0.0656229
-0.0650707
-0.0644959
-0.0639255
-0.0633916
-0.0628239
-0.0622586
-0.0617011
-0.0611315
-0.060575
-0.0600362
-0.0594594
-0.058907
-0.0583396
-0.0577691
-0.0572043
-0.0566495
-0.0560592
-0.0555038
-0.0549142
-0.0543258
-0.0537407
-0.0531585
-0.0525604
-0.0519356
-0.0513059
-0.0508021
-0.0808975
-0.0803262
-0.0797395
-0.0791603
-0.0785982
-0.0780097
-0.0774345
-0.0768674
-0.0763015
-0.0757128
-0.0751405
-0.0745741
-0.074016
-0.073431
-0.0728686
-0.0722791
-0.0717454
-0.0711428
-0.070601
-0.0700273
-0.0694716
-0.0688916
-0.0683381
-0.0677845
-0.0672056
-0.0666352
-0.0660929
-0.0655274
-0.0649762
-0.064403
-0.0638332
-0.0632995
-0.0627331
-0.062168
-0.0616107
-0.0610416
-0.0604844
-0.0599453
-0.0593683
-0.0588148
-0.0582466
-0.0576752
-0.0571086
-0.0565524
-0.0559606
-0.055403
-0.0548121
-0.054222
-0.0536352
-0.0530516
-0.0524527
-0.0518295
-0.0511897
-0.0507038
-0.0807166
-0.0801486
-0.0795662
-0.0789905
-0.0784312
-0.077847
-0.077275
-0.0767106
-0.0761479
-0.0755632
-0.0749937
-0.0744298
-0.0738744
-0.0732928
-0.0727331
-0.0721465
-0.0716143
-0.0710157
-0.0704752
-0.069904
-0.0693504
-0.0687731
-0.0682209
-0.0676692
-0.067093
-0.066524
-0.0659828
-0.065419
-0.0648688
-0.0642975
-0.0637286
-0.063195
-0.0626299
-0.0620655
-0.0615085
-0.06094
-0.0603824
-0.0598428
-0.059266
-0.0587116
-0.0581429
-0.0575708
-0.0570027
-0.0564454
-0.0558525
-0.0552931
-0.0547013
-0.0541098
-0.0535217
-0.052937
-0.0523373
-0.0517164
-0.0510669
-0.0505965
-0.080516
-0.0799515
-0.0793738
-0.0788017
-0.0782456
-0.077666
-0.0770975
-0.0765361
-0.0759767
-0.0753963
-0.07483
-0.0742689
-0.0737163
-0.0731383
-0.0725815
-0.0719984
-0.0714677
-0.0708735
-0.0703342
-0.069766
-0.0692145
-0.0686403
-0.0680896
-0.0675397
-0.0669665
-0.0663994
-0.0658591
-0.0652973
-0.0647482
-0.0641792
-0.0636114
-0.0630779
-0.0625144
-0.0619507
-0.0613942
-0.0608266
-0.0602688
-0.0597289
-0.0591526
-0.0585974
-0.0580285
-0.057456
-0.0568868
-0.0563285
-0.0557352
-0.0551741
-0.0545818
-0.0539895
-0.0534003
-0.0528148
-0.0522144
-0.0515962
-0.0509377
-0.0504807
-0.0802956
-0.0797349
-0.0791621
-0.0785941
-0.0780412
-0.0774665
-0.0769019
-0.0763437
-0.0757878
-0.075212
-0.0746492
-0.0740911
-0.0735414
-0.0729675
-0.0724138
-0.0718345
-0.0713053
-0.0707158
-0.0701781
-0.069613
-0.0690638
-0.068493
-0.0679439
-0.067396
-0.0668261
-0.0662611
-0.0657219
-0.0651622
-0.0646145
-0.0640478
-0.0634816
-0.0629482
-0.0623864
-0.0618238
-0.061268
-0.0607016
-0.0601437
-0.0596035
-0.0590281
-0.0584724
-0.0579036
-0.0573311
-0.0567611
-0.0562021
-0.0556088
-0.0550462
-0.0544539
-0.0538612
-0.0532713
-0.0526853
-0.0520842
-0.0514693
-0.0508028
-0.0503564
-0.0800557
-0.0794991
-0.0789315
-0.0783679
-0.0778184
-0.0772488
-0.0766883
-0.0761337
-0.0755814
-0.0750105
-0.0744515
-0.0738966
-0.07335
-0.0727805
-0.07223
-0.0716549
-0.0711272
-0.0705429
-0.0700067
-0.0694451
-0.0688983
-0.0683311
-0.0677839
-0.0672382
-0.0666717
-0.0661091
-0.0655712
-0.0650138
-0.0644675
-0.0639035
-0.0633391
-0.0628059
-0.0622461
-0.0616848
-0.0611299
-0.0605649
-0.0600074
-0.059467
-0.0588927
-0.0583369
-0.0577685
-0.0571963
-0.0566259
-0.0560664
-0.0554736
-0.0549099
-0.054318
-0.0537253
-0.053135
-0.0525487
-0.0519472
-0.0513358
-0.0506627
-0.0502242
-0.079797
-0.0792446
-0.0786824
-0.0781234
-0.0775776
-0.0770134
-0.0764572
-0.0759064
-0.0753579
-0.0747922
-0.0742372
-0.0736857
-0.0731424
-0.0725774
-0.0720304
-0.0714598
-0.0709337
-0.0703549
-0.0698204
-0.0692625
-0.0687183
-0.0681549
-0.0676098
-0.0670663
-0.0665035
-0.0659438
-0.0654071
-0.0648523
-0.0643076
-0.0637464
-0.0631842
-0.0626513
-0.0620936
-0.061534
-0.0609803
-0.060417
-0.05986
-0.0593196
-0.0587469
-0.0581911
-0.0576234
-0.0570519
-0.0564816
-0.0559219
-0.05533
-0.0547656
-0.0541744
-0.0535821
-0.0529918
-0.0524056
-0.0518038
-0.0511961
-0.050518
-0.0500848
-0.0795203
-0.0789724
-0.0784157
-0.0778616
-0.0773196
-0.0767609
-0.0762093
-0.0756624
-0.0751179
-0.0745576
-0.0740068
-0.0734591
-0.0729191
-0.0723589
-0.0718154
-0.0712498
-0.0707253
-0.0701522
-0.0696197
-0.0690655
-0.0685241
-0.0679648
-0.067422
-0.066881
-0.0663221
-0.0657653
-0.0652302
-0.0646781
-0.0641352
-0.063577
-0.0630173
-0.0624849
-0.0619295
-0.0613719
-0.0608195
-0.0602582
-0.0597022
-0.0591618
-0.0585911
-0.0580356
-0.057469
-0.0568986
-0.0563286
-0.055769
-0.0551786
-0.0546137
-0.0540237
-0.0534322
-0.0528422
-0.0522565
-0.0516546
-0.0510508
-0.0503695
-0.0499388
-0.0792266
-0.0786834
-0.0781324
-0.0775834
-0.0770454
-0.0764923
-0.0759455
-0.0754028
-0.0748624
-0.0743075
-0.0737612
-0.0732174
-0.0726808
-0.0721257
-0.0715859
-0.0710254
-0.0705026
-0.0699355
-0.0694051
-0.068855
-0.0683164
-0.0677614
-0.0672212
-0.0666826
-0.0661278
-0.0655744
-0.0650409
-0.0644918
-0.0639508
-0.0633959
-0.0628389
-0.0623072
-0.0617543
-0.0611989
-0.0606482
-0.0600891
-0.0595344
-0.0589943
-0.0584258
-0.0578711
-0.0573059
-0.0567369
-0.0561677
-0.0556084
-0.0550199
-0.054455
-0.0538664
-0.0532762
-0.0526869
-0.0521019
-0.0515004
-0.0509005
-0.0502178
-0.0497871
-0.0789173
-0.0783789
-0.0778336
-0.07729
-0.076756
-0.0762088
-0.0756669
-0.0751285
-0.0745923
-0.0740431
-0.0735013
-0.0729616
-0.0724286
-0.0718787
-0.0713427
-0.0707875
-0.0702667
-0.0697056
-0.0691775
-0.0686315
-0.068096
-0.0675455
-0.067008
-0.0664721
-0.0659215
-0.0653717
-0.0648399
-0.064294
-0.0637552
-0.0632037
-0.0626498
-0.0621189
-0.0615688
-0.0610158
-0.0604671
-0.0599105
-0.0593573
-0.0588178
-0.0582518
-0.0576981
-0.0571346
-0.0565674
-0.0559995
-0.0554407
-0.0548546
-0.05429
-0.0537033
-0.0531147
-0.0525266
-0.0519427
-0.0513419
-0.0507458
-0.0500636
-0.0496307
-0.0785938
-0.0780603
-0.0775208
-0.0769826
-0.0764529
-0.0759114
-0.0753746
-0.0748407
-0.0743088
-0.0737653
-0.0732283
-0.0726928
-0.0721635
-0.0716189
-0.0710868
-0.0705372
-0.0700183
-0.0694634
-0.0689378
-0.0683962
-0.0678638
-0.0673178
-0.0667833
-0.0662503
-0.065704
-0.065158
-0.0646282
-0.0640855
-0.0635491
-0.0630012
-0.0624507
-0.0619208
-0.0613736
-0.0608234
-0.0602768
-0.059723
-0.0591717
-0.0586329
-0.0580698
-0.0575175
-0.0569561
-0.056391
-0.0558247
-0.0552669
-0.0546835
-0.0541195
-0.0535351
-0.0529486
-0.0523619
-0.0517795
-0.0511799
-0.0505876
-0.0499076
-0.0494706
-0.0782574
-0.077729
-0.0771954
-0.0766627
-0.0761373
-0.0756017
-0.07507
-0.0745407
-0.0740132
-0.0734755
-0.0729433
-0.0724122
-0.0718867
-0.0713475
-0.0708194
-0.0702754
-0.0697587
-0.06921
-0.0686871
-0.0681499
-0.0676208
-0.0670795
-0.0665482
-0.0660181
-0.0654762
-0.0649342
-0.0644066
-0.0638674
-0.0633336
-0.0627894
-0.0622424
-0.0617138
-0.0611697
-0.0606225
-0.0600783
-0.0595275
-0.0589784
-0.0584407
-0.0578807
-0.0573301
-0.056771
-0.0562084
-0.055644
-0.0550875
-0.0545072
-0.0539443
-0.0533625
-0.0527784
-0.0521937
-0.051613
-0.0510151
-0.0504267
-0.0497505
-0.0493079
-0.0779098
-0.0773865
-0.0768588
-0.0763316
-0.0758107
-0.075281
-0.0747544
-0.0742299
-0.0737069
-0.0731749
-0.0726476
-0.072121
-0.0715994
-0.0710656
-0.0705416
-0.0700034
-0.069489
-0.0689465
-0.0684265
-0.0678937
-0.0673681
-0.0668316
-0.0663036
-0.0657766
-0.0652392
-0.0647013
-0.0641761
-0.0636405
-0.0631095
-0.0625691
-0.0620258
-0.0614989
-0.060958
-0.060414
-0.0598725
-0.0593249
-0.0587783
-0.0582419
-0.0576853
-0.0571367
-0.0565803
-0.0560204
-0.0554585
-0.0549035
-0.0543267
-0.0537652
-0.0531863
-0.0526051
-0.0520227
-0.0514441
-0.0508485
-0.0502637
-0.0495929
-0.0491435
-0.0775523
-0.0770343
-0.0765124
-0.0759907
-0.0754744
-0.0749505
-0.0744292
-0.0739095
-0.0733911
-0.0728649
-0.0723424
-0.0718205
-0.0713028
-0.0707746
-0.0702547
-0.0697222
-0.0692104
-0.0686741
-0.068157
-0.0676289
-0.0671068
-0.0665751
-0.0660506
-0.0655269
-0.064994
-0.0644604
-0.0639378
-0.0634059
-0.0628778
-0.0623414
-0.0618021
-0.061277
-0.0607394
-0.0601988
-0.0596603
-0.059116
-0.0585723
-0.0580375
-0.0574844
-0.0569382
-0.0563848
-0.0558279
-0.0552687
-0.0547156
-0.0541426
-0.0535829
-0.0530074
-0.0524294
-0.0518497
-0.0512736
-0.0506807
-0.0500996
-0.0494355
-0.0489786
-0.0771865
-0.0766737
-0.0761576
-0.0756416
-0.0751299
-0.0746118
-0.0740958
-0.0735809
-0.0730671
-0.0725466
-0.0720291
-0.0715119
-0.0709983
-0.0704755
-0.0699598
-0.069433
-0.068924
-0.0683938
-0.0678799
-0.0673564
-0.066838
-0.0663112
-0.0657903
-0.06527
-0.0647417
-0.0642125
-0.0636926
-0.0631646
-0.0626396
-0.0621072
-0.061572
-0.0610491
-0.060515
-0.059978
-0.0594426
-0.0589019
-0.0583613
-0.0578283
-0.0572791
-0.0567355
-0.0561853
-0.0556317
-0.0550756
-0.0545247
-0.0539558
-0.0533983
-0.0528264
-0.0522519
-0.0516754
-0.051102
-0.0505125
-0.049935
-0.0492788
-0.0488139
-0.0768137
-0.0763061
-0.0757958
-0.0752854
-0.0747785
-0.0742661
-0.0737553
-0.0732453
-0.0727362
-0.0722214
-0.0717089
-0.0711964
-0.0706869
-0.0701696
-0.0696582
-0.0691371
-0.068631
-0.0681068
-0.0675963
-0.0670774
-0.0665628
-0.0660408
-0.0655237
-0.065007
-0.0644833
-0.0639585
-0.0634416
-0.0629175
-0.0623959
-0.0618676
-0.0613366
-0.060816
-0.0602857
-0.0597524
-0.0592203
-0.0586834
-0.0581461
-0.0576153
-0.0570701
-0.0565294
-0.0559826
-0.0554327
-0.0548799
-0.0543316
-0.053767
-0.0532121
-0.0526441
-0.0520735
-0.0515005
-0.0509302
-0.0503445
-0.0497707
-0.0491232
-0.0486504
-0.0764351
-0.0759328
-0.0754282
-0.0749233
-0.0744212
-0.0739145
-0.073409
-0.0729039
-0.0723996
-0.0718903
-0.0713828
-0.0708751
-0.0703699
-0.0698579
-0.0693509
-0.0688354
-0.0683325
-0.0678141
-0.0673072
-0.066793
-0.0662823
-0.0657651
-0.0652519
-0.0647389
-0.0642198
-0.0636995
-0.0631857
-0.0626657
-0.0621475
-0.0616235
-0.0610968
-0.0605788
-0.0600523
-0.0595229
-0.0589943
-0.0584613
-0.0579275
-0.0573992
-0.0568581
-0.0563207
-0.0557776
-0.0552314
-0.0546823
-0.0541368
-0.0535769
-0.0530249
-0.0524611
-0.0518946
-0.0513256
-0.0507587
-0.0501772
-0.0496073
-0.0489693
-0.0484888
-0.0760518
-0.0755549
-0.0750559
-0.0745565
-0.0740593
-0.0735582
-0.0730579
-0.0725578
-0.0720582
-0.0715544
-0.071052
-0.0705491
-0.0700482
-0.0695415
-0.0690389
-0.068529
-0.0680294
-0.0675168
-0.0670135
-0.0665041
-0.0659973
-0.065485
-0.0649758
-0.0644666
-0.0639521
-0.0634364
-0.0629259
-0.06241
-0.0618954
-0.0613757
-0.0608534
-0.0603383
-0.0598156
-0.0592903
-0.0587654
-0.0582365
-0.0577064
-0.0571809
-0.0566441
-0.05611
-0.0555709
-0.0550287
-0.0544835
-0.0539412
-0.0533861
-0.0528374
-0.052278
-0.051716
-0.0511512
-0.0505881
-0.0500113
-0.0494453
-0.0488173
-0.0483297
-0.0756648
-0.0751732
-0.0746798
-0.0741859
-0.0736936
-0.073198
-0.072703
-0.0722079
-0.0717131
-0.0712148
-0.0707173
-0.0702193
-0.0697227
-0.0692214
-0.0687231
-0.0682188
-0.0677226
-0.0672157
-0.0667162
-0.0662115
-0.0657088
-0.0652014
-0.0646962
-0.0641909
-0.0636811
-0.06317
-0.062663
-0.0621513
-0.0616404
-0.061125
-0.0606072
-0.0600951
-0.0595765
-0.0590554
-0.0585344
-0.0580095
-0.0574834
-0.0569609
-0.0564285
-0.0558981
-0.0553631
-0.0548251
-0.0542841
-0.0537453
-0.0531951
-0.05265
-0.0520953
-0.051538
-0.0509777
-0.0504188
-0.0498471
-0.0492852
-0.0486675
-0.0481737
-0.0752751
-0.0747888
-0.0743009
-0.0738125
-0.073325
-0.072835
-0.0723451
-0.071855
-0.071365
-0.0708721
-0.0703796
-0.0698864
-0.0693943
-0.0688982
-0.0684045
-0.0679055
-0.067413
-0.0669116
-0.0664161
-0.0659161
-0.0654176
-0.0649149
-0.0644139
-0.0639126
-0.0634075
-0.062901
-0.0623976
-0.0618902
-0.0613832
-0.0608721
-0.0603589
-0.0598501
-0.0593357
-0.0588187
-0.0583017
-0.0577812
-0.0572591
-0.0567399
-0.0562121
-0.0556856
-0.0551548
-0.0546212
-0.0540845
-0.0535495
-0.0530044
-0.0524632
-0.0519135
-0.051361
-0.0508057
-0.0502511
-0.0496849
-0.0491274
-0.0485201
-0.0480211
-0.0748832
-0.0744022
-0.0739198
-0.0734368
-0.0729544
-0.0724697
-0.071985
-0.0714999
-0.0710148
-0.0705272
-0.0700397
-0.0695514
-0.0690637
-0.0685728
-0.0680836
-0.06759
-0.0671013
-0.0666053
-0.0661139
-0.0656185
-0.0651243
-0.0646264
-0.0641297
-0.0636324
-0.0631319
-0.0626301
-0.0621305
-0.0616274
-0.0611244
-0.0606178
-0.0601091
-0.0596038
-0.0590936
-0.058581
-0.0580681
-0.057552
-0.0570342
-0.0565184
-0.0559952
-0.0554728
-0.0549465
-0.0544175
-0.0538853
-0.0533543
-0.0528145
-0.0522775
-0.0517328
-0.0511855
-0.0506353
-0.0500854
-0.049525
-0.048972
-0.0483753
-0.047872
-0.0744899
-0.0740142
-0.0735373
-0.0730596
-0.0725822
-0.0721029
-0.0716233
-0.0711433
-0.070663
-0.0701806
-0.0696981
-0.0692146
-0.0687316
-0.0682458
-0.0677611
-0.0672727
-0.066788
-0.0662973
-0.06581
-0.0653194
-0.0648295
-0.0643364
-0.063844
-0.0633509
-0.0628551
-0.0623578
-0.0618622
-0.0613635
-0.0608645
-0.0603624
-0.0598583
-0.0593568
-0.0588509
-0.0583427
-0.0578341
-0.0573224
-0.0568089
-0.0562969
-0.0557785
-0.0552603
-0.0547386
-0.0542142
-0.0536868
-0.05316
-0.0526255
-0.052093
-0.0515537
-0.0510117
-0.0504668
-0.0499219
-0.0493674
-0.0488193
-0.0482331
-0.0477267
-0.0740957
-0.0736253
-0.0731537
-0.0726814
-0.072209
-0.071735
-0.0712606
-0.0707855
-0.0703101
-0.069833
-0.0693554
-0.0688768
-0.0683983
-0.0679176
-0.0674376
-0.0669543
-0.0664737
-0.0659883
-0.0655052
-0.0650193
-0.0645337
-0.0640454
-0.0635573
-0.0630686
-0.0625774
-0.0620848
-0.0615932
-0.0610989
-0.0606042
-0.0601066
-0.0596071
-0.0591094
-0.0586079
-0.0581043
-0.0576
-0.0570929
-0.0565839
-0.0560758
-0.0555622
-0.0550483
-0.0545313
-0.0540118
-0.0534892
-0.0529669
-0.0524379
-0.0519101
-0.0513761
-0.0508396
-0.0503003
-0.0497606
-0.0492123
-0.0486694
-0.0480934
-0.0475851
-0.073701
-0.0732358
-0.0727697
-0.0723026
-0.0718352
-0.0713665
-0.0708972
-0.0704271
-0.0699567
-0.0694846
-0.069012
-0.0685383
-0.0680645
-0.0675888
-0.0671134
-0.0666352
-0.0661588
-0.0656785
-0.0651998
-0.0647186
-0.0642374
-0.0637539
-0.0632702
-0.0627858
-0.0622992
-0.0618114
-0.0613239
-0.0608341
-0.0603436
-0.0598506
-0.0593558
-0.0588621
-0.0583651
-0.057866
-0.0573662
-0.0568637
-0.0563592
-0.0558552
-0.0553465
-0.0548372
-0.0543251
-0.0538104
-0.0532929
-0.0527752
-0.0522517
-0.0517287
-0.0512004
-0.0506695
-0.0501358
-0.0496016
-0.0490597
-0.0485221
-0.0479563
-0.0474471
-0.0733061
-0.0728463
-0.0723854
-0.0719236
-0.0714612
-0.0709978
-0.0705336
-0.0700685
-0.0696029
-0.069136
-0.0686683
-0.0681995
-0.0677304
-0.0672596
-0.0667889
-0.0663158
-0.0658437
-0.0653685
-0.0648941
-0.0644177
-0.063941
-0.0634622
-0.062983
-0.0625029
-0.0620211
-0.0615378
-0.0610546
-0.0605693
-0.0600832
-0.0595948
-0.0591047
-0.0586152
-0.0581227
-0.0576282
-0.0571329
-0.0566351
-0.0561353
-0.0556356
-0.0551318
-0.0546272
-0.0541199
-0.0536103
-0.0530978
-0.052585
-0.0520671
-0.0515492
-0.0510265
-0.0505013
-0.0499735
-0.0494449
-0.0489095
-0.0483775
-0.0478215
-0.0473126
-0.0729115
-0.0724568
-0.0720012
-0.0715447
-0.0710874
-0.0706291
-0.07017
-0.0697099
-0.0692493
-0.0687874
-0.0683246
-0.0678607
-0.0673963
-0.0669305
-0.0664645
-0.0659963
-0.0655287
-0.0650584
-0.0645886
-0.0641168
-0.0636446
-0.0631706
-0.0626959
-0.0622203
-0.0617431
-0.0612645
-0.0607856
-0.0603049
-0.0598232
-0.0593395
-0.058854
-0.0583688
-0.0578809
-0.0573911
-0.0569004
-0.0564073
-0.0559123
-0.055417
-0.0549182
-0.0544184
-0.0539161
-0.0534116
-0.0529043
-0.0523964
-0.0518841
-0.0513714
-0.0508544
-0.0503351
-0.0498133
-0.0492904
-0.0487617
-0.0482354
-0.047689
-0.0471814
-0.0725172
-0.0720678
-0.0716174
-0.0711661
-0.0707138
-0.0702607
-0.0698066
-0.0693516
-0.0688959
-0.068439
-0.0679812
-0.0675221
-0.0670625
-0.0666016
-0.0661403
-0.0656771
-0.0652139
-0.0647486
-0.0642833
-0.0638162
-0.0633486
-0.0628793
-0.0624092
-0.0619381
-0.0614655
-0.0609917
-0.0605172
-0.0600411
-0.0595639
-0.0590847
-0.0586041
-0.0581232
-0.0576399
-0.0571548
-0.0566688
-0.0561806
-0.0556903
-0.0551996
-0.0547058
-0.0542108
-0.0537136
-0.0532143
-0.0527122
-0.0522094
-0.0517028
-0.0511955
-0.0506843
-0.0501708
-0.0496551
-0.0491381
-0.048616
-0.0480956
-0.0475585
-0.0470531
-0.0721235
-0.0716793
-0.0712342
-0.070788
-0.0703408
-0.0698928
-0.0694438
-0.0689937
-0.0685429
-0.0680911
-0.0676382
-0.067184
-0.0667291
-0.0662731
-0.0658166
-0.0653583
-0.0648996
-0.0644392
-0.0639785
-0.0635162
-0.0630531
-0.0625885
-0.062123
-0.0616564
-0.0611886
-0.0607194
-0.0602494
-0.0597779
-0.0593053
-0.0588308
-0.0583549
-0.0578785
-0.0573999
-0.0569196
-0.0564383
-0.0559549
-0.0554695
-0.0549834
-0.0544947
-0.0540046
-0.0535126
-0.0530184
-0.0525217
-0.052024
-0.0515232
-0.0510212
-0.0505159
-0.0500084
-0.0494988
-0.0489878
-0.0484723
-0.0479581
-0.0474299
-0.0469274
-0.0717305
-0.0712915
-0.0708516
-0.0704106
-0.0699685
-0.0695255
-0.0690816
-0.0686365
-0.0681906
-0.0677438
-0.0672958
-0.0668464
-0.0663963
-0.0659453
-0.0654934
-0.0650401
-0.064586
-0.0641305
-0.0636743
-0.0632167
-0.0627583
-0.0622984
-0.0618375
-0.0613755
-0.0609124
-0.060448
-0.0599825
-0.0595156
-0.0590476
-0.0585778
-0.0581066
-0.0576348
-0.0571609
-0.0566854
-0.0562089
-0.0557303
-0.0552498
-0.0547685
-0.0542849
-0.0537998
-0.0533129
-0.052824
-0.0523327
-0.0518403
-0.0513451
-0.0508487
-0.0503492
-0.0498477
-0.0493442
-0.0488393
-0.0483305
-0.0478225
-0.0473029
-0.046804
-0.0713385
-0.0709046
-0.0704699
-0.070034
-0.0695969
-0.0691591
-0.0687201
-0.06828
-0.0678391
-0.0673972
-0.0669541
-0.0665096
-0.0660643
-0.0656181
-0.065171
-0.0647225
-0.0642731
-0.0638224
-0.0633709
-0.062918
-0.0624642
-0.0620091
-0.0615528
-0.0610955
-0.060637
-0.0601773
-0.0597164
-0.0592542
-0.0587908
-0.0583258
-0.0578594
-0.0573921
-0.056923
-0.0564523
-0.0559806
-0.055507
-0.0550314
-0.0545549
-0.0540764
-0.0535964
-0.0531147
-0.0526311
-0.0521451
-0.0516581
-0.0511686
-0.0506778
-0.0501842
-0.0496887
-0.0491913
-0.0486925
-0.0481904
-0.0476886
-0.0471774
-0.0466826
-0.0709473
-0.0705187
-0.0700891
-0.0696583
-0.0692263
-0.0687935
-0.0683596
-0.0679244
-0.0674884
-0.0670515
-0.0666132
-0.0661736
-0.0657331
-0.0652918
-0.0648495
-0.0644058
-0.063961
-0.0635152
-0.0630683
-0.0626202
-0.062171
-0.0617207
-0.0612691
-0.0608163
-0.0603626
-0.0599076
-0.0594513
-0.0589938
-0.0585351
-0.0580748
-0.0576132
-0.0571506
-0.0566863
-0.0562204
-0.0557536
-0.0552849
-0.0548143
-0.0543427
-0.0538693
-0.0533944
-0.0529179
-0.0524396
-0.051959
-0.0514773
-0.0509936
-0.0505083
-0.0500206
-0.0495311
-0.0490399
-0.0485472
-0.0480517
-0.0475562
-0.047053
-0.0465629
-0.0705573
-0.0701338
-0.0697093
-0.0692836
-0.0688566
-0.0684288
-0.0679999
-0.0675697
-0.0671386
-0.0667066
-0.0662733
-0.0658385
-0.0654028
-0.0649664
-0.0645288
-0.06409
-0.0636498
-0.0632088
-0.0627666
-0.0623232
-0.0618788
-0.0614331
-0.0609862
-0.0605382
-0.0600892
-0.0596389
-0.0591872
-0.0587345
-0.0582804
-0.0578249
-0.0573681