/*--------------------------------*- C++ -*----------------------------------*\
| =========                 |                                                 |
| \\      /  F ield         | OpenFOAM: The Open Source CFD Toolbox           |
|  \\    /   O peration     | Version:  2412                                  |
|   \\  /    A nd           | Website:  www.openfoam.com                      |
|    \\/     M anipulation  |                                                 |
\*---------------------------------------------------------------------------*/
FoamFile
{
    version     2.0;
    format      ascii;
    arch        "LSB;label=32;scalar=64";
    class       surfaceScalarField;
    location    "2";
    object      phi;
}
// * * * * * * * * * * * * * * * * * * * * * * * * * * * * * * * * * * * * * //

dimensions      [0 3 -1 0 0 0 0];

oriented        oriented;

internalField   nonuniform List<scalar> 
128181
(
8.27238e-09
9.0827e-09
1.0746e-08
1.35177e-08
3.81895e-08
3.17753e-16
5.46326e-08
2.61598e-16
6.87246e-08
2.03257e-16
8.16483e-08
-2.56533e-16
9.38429e-08
7.09954e-16
1.05561e-07
-8.39613e-16
1.16919e-07
5.09085e-16
1.27989e-07
-3.24076e-16
1.38812e-07
1.07012e-16
1.49412e-07
-1.42374e-16
1.59805e-07
2.31531e-16
1.70002e-07
-1.54751e-16
1.80008e-07
1.61847e-17
1.89829e-07
5.26669e-17
1.99467e-07
-1.36321e-16
2.08924e-07
2.50766e-16
2.18201e-07
-9.63241e-17
2.27301e-07
4.77101e-17
2.36224e-07
7.14941e-17
2.44972e-07
-4.16322e-17
2.53547e-07
5.21188e-17
2.61949e-07
-1.68135e-17
2.70182e-07
2.65891e-17
2.78247e-07
5.20529e-17
2.86146e-07
-4.76998e-19
2.93882e-07
4.71377e-17
3.01456e-07
4.8126e-17
3.08873e-07
2.30622e-18
3.16133e-07
3.75888e-17
3.23241e-07
-5.7454e-18
3.30198e-07
2.85432e-17
3.37009e-07
-2.73849e-17
3.43675e-07
-7.30387e-18
3.50201e-07
-3.52032e-17
3.56588e-07
2.45805e-18
3.62841e-07
-3.28729e-18
3.68962e-07
-2.64672e-17
3.74954e-07
-1.73315e-18
3.80821e-07
-6.33749e-17
3.86565e-07
-3.24234e-19
3.92189e-07
-6.39066e-17
3.97697e-07
2.78441e-17
4.03091e-07
-5.31359e-17
4.08374e-07
-3.4312e-19
4.13548e-07
-5.14907e-17
4.18618e-07
-6.06187e-19
4.23585e-07
-2.13338e-18
4.28453e-07
1.39073e-17
4.33222e-07
-2.33926e-18
4.37898e-07
-1.29734e-17
4.42481e-07
1.304e-17
4.46974e-07
2.73073e-17
4.5138e-07
2.49657e-17
4.557e-07
2.54239e-18
4.59938e-07
-4.01837e-19
4.64095e-07
2.37268e-18
4.68173e-07
2.04064e-17
4.72175e-07
2.75699e-17
4.76102e-07
3.91619e-17
4.79957e-07
1.92936e-17
4.83741e-07
1.55587e-17
4.87457e-07
5.74512e-18
4.91105e-07
2.78395e-17
4.94688e-07
7.4859e-18
4.98208e-07
-7.96556e-18
5.01665e-07
-2.8181e-17
5.05062e-07
-1.42759e-18
5.08401e-07
-8.63331e-18
5.11682e-07
-9.59119e-18
5.14907e-07
-2.5354e-17
5.18078e-07
-8.243e-18
5.21196e-07
-2.60017e-17
5.24262e-07
-2.0056e-17
5.27277e-07
-4.71183e-17
5.30244e-07
-1.76282e-17
5.33162e-07
-3.63523e-17
5.36034e-07
-3.19715e-17
5.3886e-07
-4.28019e-17
5.41641e-07
-2.82382e-17
5.44379e-07
-2.24376e-17
5.47074e-07
-1.91152e-17
5.49728e-07
-3.26971e-17
5.52342e-07
2.38738e-17
5.54916e-07
2.48895e-19
5.57452e-07
1.30276e-17
5.59949e-07
-5.71544e-17
5.62411e-07
2.30387e-17
5.64836e-07
2.10354e-17
5.67226e-07
5.05113e-17
5.69582e-07
-3.7965e-17
5.71904e-07
-9.40058e-18
5.74193e-07
5.37384e-17
5.76451e-07
7.68784e-17
5.78677e-07
5.88023e-17
5.80873e-07
-2.13973e-17
5.83038e-07
1.77794e-17
5.85174e-07
4.50948e-17
5.87282e-07
7.38758e-17
5.89362e-07
1.97848e-17
5.91414e-07
1.52963e-18
5.93439e-07
-2.2461e-17
5.95438e-07
3.92523e-17
5.97412e-07
4.44944e-17
5.9936e-07
4.67375e-17
6.01284e-07
2.49467e-17
6.03183e-07
-3.63589e-18
6.05059e-07
-5.93041e-20
6.06912e-07
2.02016e-18
6.08742e-07
1.88822e-17
6.1055e-07
-3.5277e-17
6.12337e-07
9.16219e-18
6.14102e-07
-8.93283e-17
6.15846e-07
-5.45005e-17
6.1757e-07
-3.39037e-18
6.19273e-07
-8.24804e-19
6.20957e-07
2.70296e-17
6.22622e-07
-1.236e-16
6.24268e-07
-1.04783e-17
6.25896e-07
-5.94804e-17
6.27505e-07
1.38329e-16
6.29097e-07
-9.36275e-17
6.30671e-07
2.48997e-17
6.32228e-07
-1.68119e-16
6.33769e-07
4.08285e-17
6.35293e-07
-7.28636e-17
6.36801e-07
4.08149e-17
6.38293e-07
-1.06271e-17
6.3977e-07
-1.16888e-16
6.41232e-07
1.46133e-17
6.42679e-07
-1.3945e-16
6.44111e-07
3.36235e-16
6.45529e-07
-2.63525e-16
6.46933e-07
4.20205e-16
6.48323e-07
-2.19293e-16
6.497e-07
1.12726e-16
6.51064e-07
-3.16515e-17
6.52414e-07
3.19412e-17
6.53752e-07
6.203e-17
6.55078e-07
-1.07771e-16
6.56391e-07
2.37172e-16
6.57693e-07
-8.67841e-17
6.58982e-07
3.24207e-16
6.60261e-07
-2.6861e-16
6.61528e-07
-1.14135e-16
6.62784e-07
-6.57145e-16
-1.36647e-15
1.28061e-08
1.1548e-10
1.26739e-08
1.32214e-10
1.25681e-08
1.05843e-10
1.24524e-08
1.15673e-10
1.23123e-08
1.40047e-10
1.22086e-08
1.03751e-10
1.20918e-08
1.16788e-10
1.19627e-08
1.2914e-10
1.18272e-08
1.35442e-10
1.17264e-08
1.00813e-10
1.1614e-08
1.12418e-10
1.14931e-08
1.20884e-10
1.13553e-08
1.37847e-10
1.12495e-08
1.05786e-10
1.11251e-08
1.24367e-10
1.1039e-08
8.60851e-11
1.08845e-08
1.54558e-10
1.08158e-08
6.86346e-11
1.0675e-08
1.40796e-10
1.0571e-08
1.03999e-10
1.04434e-08
1.27639e-10
1.03503e-08
9.31367e-11
1.02259e-08
1.24329e-10
1.00976e-08
1.28312e-10
1.00029e-08
9.46671e-11
9.90907e-09
9.38736e-11
9.78423e-09
1.24844e-10
9.67807e-09
1.06163e-10
9.55212e-09
1.25942e-10
9.45731e-09
9.48143e-11
9.36683e-09
9.04815e-11
9.23456e-09
1.32269e-10
9.13031e-09
1.04251e-10
9.02575e-09
1.0456e-10
8.92016e-09
1.0559e-10
8.83309e-09
8.70731e-11
8.73364e-09
9.94443e-11
8.60888e-09
1.24763e-10
8.5182e-09
9.06756e-11
8.40431e-09
1.13897e-10
8.30773e-09
9.65729e-11
8.2181e-09
8.96298e-11
8.12429e-09
9.38128e-11
8.01716e-09
1.07129e-10
7.94603e-09
7.11268e-11
7.84372e-09
1.02317e-10
7.78428e-09
5.94387e-11
7.75982e-09
2.4456e-11
7.79118e-09
-3.13599e-11
7.91976e-09
-1.28582e-10
8.27238e-09
-3.52614e-10
9.0827e-09
-8.1032e-10
1.0746e-08
-1.66335e-09
-2.77169e-09
1.35177e-08
4.12304e-08
4.80779e-10
4.08509e-08
5.11735e-10
4.05008e-08
4.55934e-10
4.01418e-08
4.74699e-10
3.97569e-08
5.24862e-10
3.94104e-08
4.50337e-10
3.90514e-08
4.7576e-10
3.86782e-08
5.0237e-10
3.82987e-08
5.14889e-10
3.7958e-08
4.41493e-10
3.76078e-08
4.62669e-10
3.72473e-08
4.81328e-10
3.68684e-08
5.16776e-10
3.65248e-08
4.49421e-10
3.61663e-08
4.82881e-10
3.58487e-08
4.03642e-10
3.5462e-08
5.41251e-10
3.51632e-08
3.67414e-10
3.47924e-08
5.11625e-10
3.44573e-08
4.39062e-10
3.40991e-08
4.85846e-10
3.37771e-08
4.1513e-10
3.34238e-08
4.77624e-10
3.30667e-08
4.85482e-10
3.2748e-08
4.13343e-10
3.24333e-08
4.08601e-10
3.20856e-08
4.72497e-10
3.17557e-08
4.36092e-10
3.14063e-08
4.75319e-10
3.10919e-08
4.0917e-10
3.07844e-08
3.9808e-10
3.04328e-08
4.83856e-10
3.01094e-08
4.27592e-10
2.97896e-08
4.24341e-10
2.94726e-08
4.22592e-10
2.91764e-08
3.83297e-10
2.88683e-08
4.07593e-10
2.85322e-08
4.60846e-10
2.82318e-08
3.91059e-10
2.7911e-08
4.34695e-10
2.76124e-08
3.95199e-10
2.7326e-08
3.76018e-10
2.70408e-08
3.79003e-10
2.67486e-08
3.99279e-10
2.65027e-08
3.17086e-10
2.62417e-08
3.63331e-10
2.60442e-08
2.56949e-10
2.58991e-08
1.69506e-10
2.58527e-08
1.50661e-11
2.59284e-08
-2.04278e-10
2.62253e-08
-6.49519e-10
2.68562e-08
-1.44126e-09
2.77936e-08
-2.60067e-09
-3.78932e-09
2.88112e-08
7.22756e-08
1.09908e-09
7.16441e-08
1.14331e-09
7.10455e-08
1.05445e-09
7.04388e-08
1.08142e-09
6.98056e-08
1.15808e-09
6.92139e-08
1.04202e-09
6.86096e-08
1.08008e-09
6.7991e-08
1.121e-09
6.73661e-08
1.13972e-09
6.67836e-08
1.02408e-09
6.61915e-08
1.05468e-09
6.55897e-08
1.08313e-09
6.49688e-08
1.13772e-09
6.43867e-08
1.03155e-09
6.37894e-08
1.08011e-09
6.32381e-08
9.54978e-10
6.2613e-08
1.1664e-09
6.20842e-08
8.96198e-10
6.14777e-08
1.11811e-09
6.09108e-08
1.00596e-09
6.0319e-08
1.07766e-09
5.97672e-08
9.66908e-10
5.91824e-08
1.06245e-09
5.85941e-08
1.07372e-09
5.80486e-08
9.58859e-10
5.75085e-08
9.48678e-10
5.69337e-08
1.04732e-09
5.63791e-08
9.90703e-10
5.58033e-08
1.05114e-09
5.52666e-08
9.45841e-10
5.47385e-08
9.26177e-10
5.41636e-08
1.05874e-09
5.36201e-08
9.71144e-10
5.30815e-08
9.62886e-10
5.25475e-08
9.56609e-10
5.20373e-08
8.93521e-10
5.15155e-08
9.29351e-10
5.09641e-08
1.0123e-09
5.04532e-08
9.01947e-10
4.99209e-08
9.66941e-10
4.94158e-08
9.00317e-10
4.89264e-08
8.65448e-10
4.84417e-08
8.63725e-10
4.79525e-08
8.88445e-10
4.75181e-08
7.5146e-10
4.7068e-08
8.13463e-10
4.66869e-08
6.38097e-10
4.63581e-08
4.98268e-10
4.6081e-08
2.92122e-10
4.59057e-08
-2.89358e-11
4.58173e-08
-5.61107e-10
4.58376e-08
-1.46155e-09
4.58659e-08
-2.62899e-09
-3.78922e-09
4.58658e-08
1.05874e-07
1.972e-09
1.04988e-07
2.02934e-09
1.04139e-07
1.9038e-09
1.03282e-07
1.93832e-09
1.02398e-07
2.0422e-09
1.01559e-07
1.88066e-09
1.00708e-07
1.93144e-09
9.98419e-08
1.98659e-09
9.89703e-08
2.01136e-09
9.81444e-08
1.84993e-09
9.73091e-08
1.89003e-09
9.64645e-08
1.92778e-09
9.56001e-08
2.00202e-09
9.47783e-08
1.85344e-09
9.39405e-08
1.91789e-09
9.31532e-08
1.74221e-09
9.22871e-08
2.03259e-09
9.15261e-08
1.65718e-09
9.06817e-08
1.96247e-09
8.98812e-08
1.80648e-09
8.90541e-08
1.90479e-09
8.8271e-08
1.74999e-09
8.74529e-08
1.88056e-09
8.66316e-08
1.89497e-09
8.58571e-08
1.73337e-09
8.50892e-08
1.71661e-09
8.42846e-08
1.85186e-09
8.35032e-08
1.77214e-09
8.26987e-08
1.85562e-09
8.19374e-08
1.70717e-09
8.11863e-08
1.67733e-09
8.03854e-08
1.85961e-09
7.96191e-08
1.73745e-09
7.88588e-08
1.72316e-09
7.81042e-08
1.71118e-09
7.73761e-08
1.62166e-09
7.66369e-08
1.66859e-09
7.58663e-08
1.78285e-09
7.51412e-08
1.62703e-09
7.43933e-08
1.71492e-09
7.36763e-08
1.6173e-09
7.29769e-08
1.5648e-09
7.22838e-08
1.55688e-09
7.15859e-08
1.58628e-09
7.09466e-08
1.3908e-09
7.02843e-08
1.47579e-09
6.96854e-08
1.23691e-09
6.91202e-08
1.06352e-09
6.85808e-08
8.31479e-10
6.80291e-08
5.22788e-10
6.75266e-08
-5.85494e-11
6.69962e-08
-9.31192e-10
6.63709e-08
-2.00373e-09
-3.07527e-09
6.5657e-08
1.41923e-07
3.09977e-09
1.40782e-07
3.17015e-09
1.39681e-07
3.00465e-09
1.38573e-07
3.04616e-09
1.37438e-07
3.17786e-09
1.36351e-07
2.96696e-09
1.35252e-07
3.03038e-09
1.34139e-07
3.09958e-09
1.33021e-07
3.13009e-09
1.31951e-07
2.91937e-09
1.30872e-07
2.96901e-09
1.29784e-07
3.01568e-09
1.28676e-07
3.11004e-09
1.27614e-07
2.91557e-09
1.26535e-07
2.99663e-09
1.25511e-07
2.76625e-09
1.24404e-07
3.14042e-09
1.23409e-07
2.65154e-09
1.22326e-07
3.04544e-09
1.21291e-07
2.84159e-09
1.20228e-07
2.96791e-09
1.19213e-07
2.76526e-09
1.18161e-07
2.93277e-09
1.17105e-07
2.95012e-09
1.16101e-07
2.73789e-09
1.15104e-07
2.7136e-09
1.14068e-07
2.88739e-09
1.13059e-07
2.78185e-09
1.12024e-07
2.89003e-09
1.11037e-07
2.69456e-09
1.10061e-07
2.65315e-09
1.09033e-07
2.88816e-09
1.08041e-07
2.72846e-09
1.07057e-07
2.70721e-09
1.0608e-07
2.68857e-09
1.05131e-07
2.57036e-09
1.04172e-07
2.62826e-09
1.03179e-07
2.77565e-09
1.02236e-07
2.56993e-09
1.01268e-07
2.68269e-09
1.00334e-07
2.55111e-09
9.94189e-08
2.48027e-09
9.85094e-08
2.46637e-09
9.75929e-08
2.50279e-09
9.67358e-08
2.24791e-09
9.58455e-08
2.36614e-09
9.50106e-08
2.07184e-09
9.41903e-08
1.8838e-09
9.33665e-08
1.65526e-09
9.25006e-08
1.38865e-09
9.157e-08
8.72137e-10
9.06298e-08
8.92134e-12
8.95369e-08
-9.10801e-10
-1.87864e-09
8.83403e-08
1.80284e-07
4.48072e-09
1.7889e-07
4.56404e-09
1.77539e-07
4.35559e-09
1.76182e-07
4.40362e-09
1.74796e-07
4.56367e-09
1.73463e-07
4.29977e-09
1.72118e-07
4.37568e-09
1.70759e-07
4.45877e-09
1.69394e-07
4.49459e-09
1.68083e-07
4.23119e-09
1.66761e-07
4.29037e-09
1.65431e-07
4.34568e-09
1.64081e-07
4.46057e-09
1.62779e-07
4.21695e-09
1.61461e-07
4.31517e-09
1.60201e-07
4.02634e-09
1.58852e-07
4.48881e-09
1.57625e-07
3.87885e-09
1.56304e-07
4.36618e-09
1.55035e-07
4.11081e-09
1.53737e-07
4.26635e-09
1.5249e-07
4.01231e-09
1.51204e-07
4.21855e-09
1.49915e-07
4.23864e-09
1.48681e-07
3.97208e-09
1.47455e-07
3.9394e-09
1.46189e-07
4.15367e-09
1.44951e-07
4.01992e-09
1.43687e-07
4.15438e-09
1.42473e-07
3.90818e-09
1.41272e-07
3.854e-09
1.40016e-07
4.14473e-09
1.38799e-07
3.94487e-09
1.3759e-07
3.91582e-09
1.36389e-07
3.88969e-09
1.35219e-07
3.74091e-09
1.34037e-07
3.81e-09
1.3282e-07
3.99261e-09
1.31657e-07
3.73319e-09
1.30466e-07
3.87309e-09
1.29312e-07
3.70531e-09
1.28176e-07
3.61632e-09
1.27045e-07
3.59769e-09
1.25903e-07
3.64444e-09
1.24821e-07
3.33032e-09
1.23695e-07
3.49184e-09
1.22618e-07
3.14844e-09
1.21543e-07
2.95881e-09
1.20448e-07
2.75109e-09
1.19288e-07
2.54837e-09
1.18064e-07
2.09652e-09
1.16733e-07
1.33929e-09
1.15315e-07
5.07147e-10
-3.53088e-10
1.1379e-07
2.20783e-07
6.11077e-09
2.1914e-07
6.20687e-09
2.17543e-07
5.9528e-09
2.1594e-07
6.00695e-09
2.14308e-07
6.19585e-09
2.12732e-07
5.87568e-09
2.11143e-07
5.96392e-09
2.09541e-07
6.06073e-09
2.07935e-07
6.10141e-09
2.06384e-07
5.78219e-09
2.04823e-07
5.85085e-09
2.03254e-07
5.91461e-09
2.01664e-07
6.05041e-09
2.00127e-07
5.75465e-09
1.98571e-07
5.87045e-09
1.97078e-07
5.51978e-09
1.95492e-07
6.07462e-09
1.94034e-07
5.33675e-09
1.92479e-07
5.92192e-09
1.90978e-07
5.61175e-09
1.89446e-07
5.79761e-09
1.8797e-07
5.48894e-09
1.86453e-07
5.73558e-09
1.84933e-07
5.75824e-09
1.83471e-07
5.43392e-09
1.82019e-07
5.3921e-09
1.80523e-07
5.64875e-09
1.79059e-07
5.48467e-09
1.77566e-07
5.64689e-09
1.76128e-07
5.34662e-09
1.74703e-07
5.27864e-09
1.7322e-07
5.62794e-09
1.71779e-07
5.38568e-09
1.70347e-07
5.34813e-09
1.68923e-07
5.31383e-09
1.67531e-07
5.13299e-09
1.66127e-07
5.21372e-09
1.64686e-07
5.43385e-09
1.63301e-07
5.11755e-09
1.61887e-07
5.28708e-09
1.60511e-07
5.08141e-09
1.59152e-07
4.975e-09
1.57797e-07
4.95336e-09
1.56427e-07
5.01394e-09
1.55117e-07
4.64074e-09
1.53755e-07
4.8541e-09
1.52438e-07
4.46515e-09
1.51115e-07
4.28145e-09
1.49764e-07
4.10266e-09
1.48339e-07
3.97266e-09
1.46847e-07
3.58912e-09
1.45283e-07
2.90315e-09
1.43613e-07
2.17715e-09
1.47159e-09
1.41788e-07
2.63206e-07
7.983e-09
2.61321e-07
8.09168e-09
2.59484e-07
7.78968e-09
2.57642e-07
7.84963e-09
2.5577e-07
8.0678e-09
2.53957e-07
7.68856e-09
2.52132e-07
7.78899e-09
2.50293e-07
7.89939e-09
2.4845e-07
7.94452e-09
2.46666e-07
7.56672e-09
2.44872e-07
7.64481e-09
2.43069e-07
7.71686e-09
2.41246e-07
7.87389e-09
2.39477e-07
7.52336e-09
2.3769e-07
7.6571e-09
2.35969e-07
7.24163e-09
2.34151e-07
7.89242e-09
2.32467e-07
7.02068e-09
2.30681e-07
7.7076e-09
2.28953e-07
7.3398e-09
2.27194e-07
7.55698e-09
2.25492e-07
7.19088e-09
2.23748e-07
7.4794e-09
2.22002e-07
7.5045e-09
2.20316e-07
7.11936e-09
2.18641e-07
7.06777e-09
2.16921e-07
7.36857e-09
2.15233e-07
7.17236e-09
2.13516e-07
7.36381e-09
2.11856e-07
7.00646e-09
2.10211e-07
6.92385e-09
2.08505e-07
7.33441e-09
2.06843e-07
7.04788e-09
2.05189e-07
7.00128e-09
2.03545e-07
6.9583e-09
2.01934e-07
6.7443e-09
2.0031e-07
6.83731e-09
1.98647e-07
7.09731e-09
1.97043e-07
6.72155e-09
1.95406e-07
6.92329e-09
1.93809e-07
6.67846e-09
1.92229e-07
6.55564e-09
1.90649e-07
6.53277e-09
1.89053e-07
6.61041e-09
1.87516e-07
6.17798e-09
1.8592e-07
6.44999e-09
1.84368e-07
6.01661e-09
1.82808e-07
5.84199e-09
1.81216e-07
5.69406e-09
1.79552e-07
5.63738e-09
1.77826e-07
5.31468e-09
1.76046e-07
4.68278e-09
1.74174e-07
4.04998e-09
3.49404e-09
1.72151e-07
3.07302e-07
1.00872e-08
3.05185e-07
1.02083e-08
3.03119e-07
9.85649e-09
3.01046e-07
9.92199e-09
2.98944e-07
1.01698e-08
2.96904e-07
9.72922e-09
2.94851e-07
9.84179e-09
2.92785e-07
9.96569e-09
2.90714e-07
1.00149e-08
2.88705e-07
9.57628e-09
2.86686e-07
9.66378e-09
2.84658e-07
9.74403e-09
2.8261e-07
9.92258e-09
2.80618e-07
9.51507e-09
2.78608e-07
9.66706e-09
2.76665e-07
9.18432e-09
2.74624e-07
9.93413e-09
2.72721e-07
8.92348e-09
2.70713e-07
9.71557e-09
2.68765e-07
9.2878e-09
2.66785e-07
9.53721e-09
2.64864e-07
9.11133e-09
2.62901e-07
9.44308e-09
2.60934e-07
9.47054e-09
2.59032e-07
9.02197e-09
2.5714e-07
8.96014e-09
2.55201e-07
9.30672e-09
2.53297e-07
9.07689e-09
2.51362e-07
9.29896e-09
2.49486e-07
8.88202e-09
2.47626e-07
8.78415e-09
2.45702e-07
9.25843e-09
2.43823e-07
8.92618e-09
2.41955e-07
8.87014e-09
2.40095e-07
8.81815e-09
2.38269e-07
8.57022e-09
2.3643e-07
8.67628e-09
2.34549e-07
8.97851e-09
2.32729e-07
8.5412e-09
2.30875e-07
8.77773e-09
2.2906e-07
8.49277e-09
2.27261e-07
8.35468e-09
2.25462e-07
8.33226e-09
2.23642e-07
8.42979e-09
2.21883e-07
7.9376e-09
2.20059e-07
8.27356e-09
2.18281e-07
7.79527e-09
2.16492e-07
7.63028e-09
2.14675e-07
7.51173e-09
2.12787e-07
7.52498e-09
2.10849e-07
7.2522e-09
2.08875e-07
6.65753e-09
2.06825e-07
6.1001e-09
5.68005e-09
2.04639e-07
3.52783e-07
1.24096e-08
3.50449e-07
1.2543e-08
3.48165e-07
1.214e-08
3.45876e-07
1.22109e-08
3.43557e-07
1.24887e-08
3.41301e-07
1.19851e-08
3.39033e-07
1.21099e-08
3.36752e-07
1.22472e-08
3.34466e-07
1.23004e-08
3.32243e-07
1.17992e-08
3.30011e-07
1.18962e-08
3.2777e-07
1.19846e-08
3.25508e-07
1.2185e-08
3.23304e-07
1.17188e-08
3.21082e-07
1.18893e-08
3.18929e-07
1.13374e-08
3.16674e-07
1.21887e-08
3.14563e-07
1.10352e-08
3.12343e-07
1.19353e-08
3.10185e-07
1.14457e-08
3.07994e-07
1.17283e-08
3.05865e-07
1.12408e-08
3.03691e-07
1.16169e-08
3.01514e-07
1.16468e-08
2.99404e-07
1.11327e-08
2.97304e-07
1.10603e-08
2.95156e-07
1.14541e-08
2.93044e-07
1.11895e-08
2.90899e-07
1.14436e-08
2.88816e-07
1.0965e-08
2.86749e-07
1.08515e-08
2.84615e-07
1.13917e-08
2.82529e-07
1.10127e-08
2.80452e-07
1.0947e-08
2.78384e-07
1.08859e-08
2.76351e-07
1.06036e-08
2.74303e-07
1.07236e-08
2.72212e-07
1.10703e-08
2.70183e-07
1.05699e-08
2.68117e-07
1.08436e-08
2.66092e-07
1.05178e-08
2.64081e-07
1.03657e-08
2.62068e-07
1.03452e-08
2.60033e-07
1.0465e-08
2.58058e-07
9.91233e-09
2.56015e-07
1.03164e-08
2.54019e-07
9.79193e-09
2.52013e-07
9.63588e-09
2.49981e-07
9.54401e-09
2.47883e-07
9.62268e-09
2.45747e-07
9.38858e-09
2.4359e-07
8.81431e-09
2.41376e-07
8.31386e-09
8.01416e-09
2.39042e-07
3.99328e-07
1.49327e-08
3.96792e-07
1.50783e-08
3.94309e-07
1.46233e-08
3.9182e-07
1.46997e-08
3.89301e-07
1.50078e-08
3.86846e-07
1.44402e-08
3.84379e-07
1.45772e-08
3.81898e-07
1.47282e-08
3.79413e-07
1.47852e-08
3.76992e-07
1.42203e-08
3.74561e-07
1.43269e-08
3.72122e-07
1.44237e-08
3.69661e-07
1.46462e-08
3.67259e-07
1.41202e-08
3.64839e-07
1.43095e-08
3.62489e-07
1.36872e-08
3.60036e-07
1.4642e-08
3.57728e-07
1.33428e-08
3.55311e-07
1.43531e-08
3.52956e-07
1.38006e-08
3.50567e-07
1.4117e-08
3.48241e-07
1.35666e-08
3.4587e-07
1.39882e-08
3.43496e-07
1.40207e-08
3.41189e-07
1.34395e-08
3.38893e-07
1.33565e-08
3.36548e-07
1.37989e-08
3.34239e-07
1.34988e-08
3.31896e-07
1.37861e-08
3.29617e-07
1.32444e-08
3.27353e-07
1.31151e-08
3.25022e-07
1.37232e-08
3.22738e-07
1.32968e-08
3.20463e-07
1.32215e-08
3.18198e-07
1.31513e-08
3.15967e-07
1.28346e-08
3.13721e-07
1.29693e-08
3.11429e-07
1.33626e-08
3.092e-07
1.27981e-08
3.06933e-07
1.31114e-08
3.04706e-07
1.27443e-08
3.02493e-07
1.25792e-08
3.00276e-07
1.25621e-08
2.98035e-07
1.27061e-08
2.95855e-07
1.20923e-08
2.93603e-07
1.25678e-08
2.914e-07
1.19956e-08
2.89188e-07
1.18475e-08
2.86952e-07
1.17795e-08
2.84656e-07
1.19195e-08
2.8233e-07
1.17143e-08
2.79998e-07
1.11457e-08
2.77627e-07
1.0685e-08
1.04883e-08
2.75153e-07
4.46583e-07
1.76349e-08
4.43868e-07
1.7793e-08
4.41205e-07
1.72858e-08
4.38537e-07
1.73679e-08
4.35839e-07
1.77066e-08
4.33204e-07
1.70746e-08
4.30557e-07
1.72241e-08
4.27896e-07
1.73889e-08
4.25232e-07
1.74501e-08
4.22631e-07
1.68211e-08
4.2002e-07
1.69377e-08
4.17401e-07
1.7043e-08
4.14759e-07
1.7288e-08
4.12177e-07
1.67018e-08
4.09577e-07
1.69102e-08
4.07047e-07
1.62169e-08
4.04413e-07
1.72765e-08
4.01925e-07
1.583e-08
3.99326e-07
1.69522e-08
3.96791e-07
1.63362e-08
3.9422e-07
1.66871e-08
3.91714e-07
1.60733e-08
3.89161e-07
1.65413e-08
3.86605e-07
1.65767e-08
3.84117e-07
1.59275e-08
3.81639e-07
1.58341e-08
3.79112e-07
1.63261e-08
3.76621e-07
1.59902e-08
3.74095e-07
1.6312e-08
3.71633e-07
1.57062e-08
3.69187e-07
1.55613e-08
3.66671e-07
1.62389e-08
3.64203e-07
1.57651e-08
3.61744e-07
1.56804e-08
3.59294e-07
1.56012e-08
3.56878e-07
1.52505e-08
3.54447e-07
1.54009e-08
3.51967e-07
1.58427e-08
3.49552e-07
1.52134e-08
3.47095e-07
1.55684e-08
3.44679e-07
1.51598e-08
3.42275e-07
1.49831e-08
3.39867e-07
1.49706e-08
3.37432e-07
1.51405e-08
3.3506e-07
1.44649e-08
3.32613e-07
1.50145e-08
3.30215e-07
1.43934e-08
3.27811e-07
1.42521e-08
3.25384e-07
1.42058e-08
3.229e-07
1.44041e-08
3.20394e-07
1.422e-08
3.17894e-07
1.36454e-08
3.1537e-07
1.32095e-08
1.30981e-08
3.1276e-07
4.94171e-07
2.04912e-08
4.91302e-07
2.06619e-08
4.88484e-07
2.01032e-08
4.85661e-07
2.01913e-08
4.82807e-07
2.05608e-08
4.80016e-07
1.98651e-08
4.77213e-07
2.00275e-08
4.74395e-07
2.02065e-08
4.71573e-07
2.02721e-08
4.68815e-07
1.95795e-08
4.66046e-07
1.97064e-08
4.63269e-07
1.98207e-08
4.60468e-07
2.00885e-08
4.57727e-07
1.94423e-08
4.54967e-07
1.96703e-08
4.52278e-07
1.89062e-08
4.49483e-07
2.00715e-08
4.46836e-07
1.84775e-08
4.44075e-07
1.97124e-08
4.41378e-07
1.9033e-08
4.38646e-07
1.94192e-08
4.35978e-07
1.87419e-08
4.33262e-07
1.9257e-08
4.30543e-07
1.92959e-08
4.27892e-07
1.85785e-08
4.25251e-07
1.84751e-08
4.22559e-07
1.90177e-08
4.19903e-07
1.8646e-08
4.17212e-07
1.90036e-08
4.14584e-07
1.83335e-08
4.11972e-07
1.81734e-08
4.0929e-07
1.89217e-08
4.06654e-07
1.84009e-08
4.04027e-07
1.83072e-08
4.01408e-07
1.82195e-08
3.98823e-07
1.78355e-08
3.96222e-07
1.80025e-08
3.9357e-07
1.84946e-08
3.90983e-07
1.78006e-08
3.88352e-07
1.8199e-08
3.85763e-07
1.77491e-08
3.83184e-07
1.75622e-08
3.80599e-07
1.75554e-08
3.77987e-07
1.77526e-08
3.75437e-07
1.7015e-08
3.7281e-07
1.76408e-08
3.70234e-07
1.69699e-08
3.67651e-07
1.68349e-08
3.65048e-07
1.68085e-08
3.62389e-07
1.70631e-08
3.59715e-07
1.68947e-08
3.57055e-07
1.63054e-08
3.54382e-07
1.58824e-08
1.58395e-08
3.5164e-07
5.41696e-07
2.34728e-08
5.38702e-07
2.36567e-08
5.35757e-07
2.30476e-08
5.32806e-07
2.31424e-08
5.29824e-07
2.35431e-08
5.26904e-07
2.27849e-08
5.23971e-07
2.29607e-08
5.21023e-07
2.31544e-08
5.1807e-07
2.3225e-08
5.1518e-07
2.247e-08
5.12278e-07
2.26078e-08
5.09367e-07
2.27317e-08
5.06433e-07
2.30229e-08
5.03557e-07
2.23177e-08
5.00662e-07
2.25656e-08
4.97836e-07
2.17319e-08
4.94905e-07
2.30028e-08
4.9212e-07
2.12625e-08
4.89222e-07
2.26105e-08
4.86387e-07
2.18686e-08
4.83515e-07
2.22906e-08
4.80706e-07
2.15507e-08
4.7785e-07
2.21135e-08
4.74989e-07
2.21565e-08
4.72196e-07
2.13714e-08
4.69413e-07
2.12587e-08
4.66578e-07
2.18527e-08
4.63778e-07
2.14459e-08
4.60941e-07
2.18402e-08
4.58168e-07
2.11063e-08
4.5541e-07
2.09317e-08
4.5258e-07
2.17517e-08
4.49796e-07
2.11849e-08
4.47021e-07
2.10829e-08
4.44253e-07
2.09874e-08
4.41517e-07
2.05712e-08
4.38764e-07
2.07557e-08
4.35959e-07
2.12994e-08
4.33218e-07
2.05413e-08
4.30432e-07
2.0985e-08
4.27687e-07
2.04942e-08
4.24951e-07
2.02984e-08
4.22208e-07
2.02985e-08
4.19436e-07
2.05242e-08
4.16726e-07
1.9725e-08
4.13938e-07
2.04286e-08
4.11201e-07
1.97075e-08
4.08457e-07
1.95785e-08
4.05695e-07
1.9571e-08
4.02877e-07
1.98808e-08
4.00047e-07
1.97243e-08
3.97238e-07
1.91144e-08
3.94425e-07
1.86959e-08
1.87068e-08
3.91558e-07
5.88755e-07
2.65481e-08
5.85666e-07
2.67458e-08
5.82626e-07
2.60883e-08
5.79577e-07
2.61906e-08
5.76498e-07
2.66228e-08
5.73478e-07
2.58043e-08
5.70445e-07
2.59941e-08
5.67396e-07
2.62032e-08
5.64341e-07
2.62798e-08
5.61347e-07
2.54642e-08
5.58341e-07
2.56137e-08
5.55325e-07
2.5748e-08
5.52285e-07
2.60631e-08
5.49302e-07
2.53007e-08
5.46298e-07
2.55691e-08
5.43363e-07
2.46674e-08
5.40322e-07
2.60436e-08
5.37425e-07
2.41596e-08
5.34415e-07
2.56202e-08
5.31466e-07
2.48174e-08
5.28481e-07
2.52757e-08
5.25557e-07
2.44747e-08
5.22585e-07
2.50857e-08
5.19608e-07
2.51338e-08
5.16697e-07
2.42824e-08
5.13794e-07
2.41612e-08
5.1084e-07
2.48072e-08
5.07919e-07
2.43664e-08
5.04961e-07
2.47985e-08
5.02065e-07
2.40018e-08
4.99183e-07
2.38137e-08
4.96229e-07
2.47062e-08
4.93319e-07
2.40948e-08
4.90417e-07
2.39854e-08
4.87521e-07
2.38831e-08
4.84656e-07
2.3436e-08
4.81773e-07
2.36391e-08
4.78836e-07
2.42357e-08
4.75963e-07
2.34147e-08
4.73043e-07
2.3905e-08
4.70163e-07
2.33742e-08
4.6729e-07
2.31712e-08
4.64409e-07
2.31794e-08
4.61499e-07
2.34346e-08
4.5865e-07
2.25745e-08
4.55721e-07
2.33571e-08
4.52842e-07
2.25862e-08
4.49958e-07
2.24632e-08
4.47055e-07
2.24741e-08
4.44097e-07
2.28385e-08
4.41129e-07
2.26918e-08
4.38186e-07
2.20577e-08
4.35244e-07
2.16382e-08
2.16904e-08
4.3226e-07
6.34943e-07
2.9683e-08
6.31793e-07
2.98953e-08
6.28689e-07
2.91921e-08
6.25577e-07
2.9303e-08
6.22433e-07
2.9767e-08
6.19346e-07
2.88911e-08
6.16244e-07
2.90958e-08
6.13127e-07
2.9321e-08
6.10002e-07
2.94046e-08
6.06935e-07
2.85312e-08
6.03855e-07
2.86934e-08
6.00764e-07
2.8839e-08
5.97648e-07
2.91786e-08
5.94588e-07
2.83614e-08
5.91506e-07
2.8651e-08
5.88489e-07
2.76841e-08
5.85368e-07
2.91644e-08
5.82387e-07
2.71407e-08
5.79295e-07
2.87128e-08
5.7626e-07
2.78515e-08
5.7319e-07
2.83466e-08
5.70178e-07
2.74867e-08
5.67117e-07
2.81461e-08
5.6405e-07
2.82005e-08
5.61048e-07
2.72847e-08
5.58053e-07
2.71565e-08
5.55005e-07
2.78547e-08
5.5199e-07
2.73815e-08
5.48936e-07
2.78523e-08
5.45943e-07
2.69948e-08
5.42962e-07
2.67945e-08
5.39909e-07
2.77596e-08
5.36898e-07
2.71057e-08
5.33893e-07
2.69902e-08
5.30894e-07
2.68821e-08
5.27924e-07
2.64062e-08
5.24934e-07
2.66288e-08
5.21891e-07
2.72793e-08
5.18908e-07
2.63971e-08
5.15878e-07
2.69353e-08
5.12886e-07
2.63659e-08
5.099e-07
2.61574e-08
5.06905e-07
2.61748e-08
5.03879e-07
2.64605e-08
5.00912e-07
2.55409e-08
4.97866e-07
2.64034e-08
4.94869e-07
2.55836e-08
4.91865e-07
2.54669e-08
4.88843e-07
2.54961e-08
4.85766e-07
2.59151e-08
4.82681e-07
2.5777e-08
4.79622e-07
2.51169e-08
4.76567e-07
2.46935e-08
2.47774e-08
4.7348e-07
6.79865e-07
3.28419e-08
6.76691e-07
3.30698e-08
6.73559e-07
3.23243e-08
6.70417e-07
3.24449e-08
6.67243e-07
3.29411e-08
6.64122e-07
3.20115e-08
6.60986e-07
3.22321e-08
6.57833e-07
3.24743e-08
6.54671e-07
3.25662e-08
6.51564e-07
3.16385e-08
6.48443e-07
3.18143e-08
6.45309e-07
3.19724e-08
6.42151e-07
3.23371e-08
6.39044e-07
3.14683e-08
6.35915e-07
3.17798e-08
6.32848e-07
3.0751e-08
6.29679e-07
3.23338e-08
6.26644e-07
3.01759e-08
6.23499e-07
3.18577e-08
6.20409e-07
3.09408e-08
6.17283e-07
3.14733e-08
6.14212e-07
3.05574e-08
6.11093e-07
3.12653e-08
6.07966e-07
3.13272e-08
6.04901e-07
3.035e-08
6.01841e-07
3.02161e-08
5.98729e-07
3.09669e-08
5.95648e-07
3.04632e-08
5.92526e-07
3.09737e-08
5.89463e-07
3.00578e-08
5.86411e-07
2.98469e-08
5.83286e-07
3.08845e-08
5.80201e-07
3.01908e-08
5.77121e-07
3.00704e-08
5.74045e-07
2.99581e-08
5.70995e-07
2.94555e-08
5.67926e-07
2.96986e-08
5.64801e-07
3.04037e-08
5.61735e-07
2.94629e-08
5.58621e-07
3.00499e-08
5.55543e-07
2.94437e-08
5.52469e-07
2.92315e-08
5.49384e-07
2.92595e-08
5.46268e-07
2.95767e-08
5.43209e-07
2.85995e-08
5.4007e-07
2.95424e-08
5.36979e-07
2.86752e-08
5.3388e-07
2.85656e-08
5.30763e-07
2.86132e-08
5.27591e-07
2.9087e-08
5.24411e-07
2.89572e-08
5.21257e-07
2.82707e-08
5.18108e-07
2.78423e-08
2.79508e-08
5.14935e-07
7.23152e-07
3.59888e-08
7.19988e-07
3.62334e-08
7.16863e-07
3.54494e-08
7.13727e-07
3.55812e-08
7.10558e-07
3.61099e-08
7.07439e-07
3.51309e-08
7.04302e-07
3.53683e-08
7.01148e-07
3.56286e-08
6.97984e-07
3.57303e-08
6.9487e-07
3.47524e-08
6.91742e-07
3.4943e-08
6.88599e-07
3.51147e-08
6.85431e-07
3.55052e-08
6.82311e-07
3.45887e-08
6.79168e-07
3.49228e-08
6.76083e-07
3.38363e-08
6.72897e-07
3.55192e-08
6.69839e-07
3.32337e-08
6.66674e-07
3.50227e-08
6.63561e-07
3.40541e-08
6.6041e-07
3.46242e-08
6.57311e-07
3.3656e-08
6.54164e-07
3.44123e-08
6.51008e-07
3.44832e-08
6.4791e-07
3.3448e-08
6.44816e-07
3.33103e-08
6.4167e-07
3.41135e-08
6.38551e-07
3.3582e-08
6.35392e-07
3.41327e-08
6.32288e-07
3.31616e-08
6.29193e-07
3.29421e-08
6.26026e-07
3.40518e-08
6.22895e-07
3.33212e-08
6.19768e-07
3.31977e-08
6.16643e-07
3.30826e-08
6.13543e-07
3.25562e-08
6.10421e-07
3.28208e-08
6.07243e-07
3.35809e-08
6.04122e-07
3.25845e-08
6.00951e-07
3.3221e-08
5.97814e-07
3.25804e-08
5.94679e-07
3.23666e-08
5.91532e-07
3.24064e-08
5.88353e-07
3.27559e-08
5.85228e-07
3.17238e-08
5.82024e-07
3.27471e-08
5.78864e-07
3.18348e-08
5.75697e-07
3.17331e-08
5.7251e-07
3.17996e-08
5.69269e-07
3.23284e-08
5.66019e-07
3.22074e-08
5.62794e-07
3.1495e-08
5.59575e-07
3.1062e-08
3.11905e-08
5.56335e-07
7.64464e-07
3.90883e-08
7.61347e-07
3.93507e-08
7.58263e-07
3.85326e-08
7.55168e-07
3.86769e-08
7.52039e-07
3.92383e-08
7.48955e-07
3.82148e-08
7.45853e-07
3.84702e-08
7.42733e-07
3.87495e-08
7.396e-07
3.88625e-08
7.36514e-07
3.78392e-08
7.33411e-07
3.80458e-08
7.30293e-07
3.82324e-08
7.27149e-07
3.86494e-08
7.24048e-07
3.76894e-08
7.20924e-07
3.8047e-08
7.17853e-07
3.69074e-08
7.14684e-07
3.86876e-08
7.11636e-07
3.62824e-08
7.08483e-07
3.81755e-08
7.05378e-07
3.71595e-08
7.02234e-07
3.77674e-08
6.99139e-07
3.67509e-08
6.95996e-07
3.75555e-08
6.92843e-07
3.7637e-08
6.89743e-07
3.65479e-08
6.86645e-07
3.64083e-08
6.83494e-07
3.72637e-08
6.80369e-07
3.67071e-08
6.77203e-07
3.72988e-08
6.74088e-07
3.62764e-08
6.7098e-07
3.60503e-08
6.67801e-07
3.72311e-08
6.64655e-07
3.64672e-08
6.6151e-07
3.63424e-08
6.58366e-07
3.62265e-08
6.55244e-07
3.5679e-08
6.52098e-07
3.59661e-08
6.48898e-07
3.67816e-08
6.45749e-07
3.57331e-08
6.4255e-07
3.64198e-08
6.39383e-07
3.57472e-08
6.36216e-07
3.55341e-08
6.33035e-07
3.55871e-08
6.29821e-07
3.59698e-08
6.26659e-07
3.4886e-08
6.23417e-07
3.59893e-08
6.20217e-07
3.50345e-08
6.17008e-07
3.4942e-08
6.1378e-07
3.50282e-08
6.10496e-07
3.56122e-08
6.07202e-07
3.55008e-08
6.03933e-07
3.47639e-08
6.00668e-07
3.43278e-08
3.44736e-08
5.97385e-07
8.03505e-07
4.21064e-08
8.00468e-07
4.23877e-08
7.9746e-07
4.15403e-08
7.94439e-07
4.16985e-08
7.91384e-07
4.22928e-08
7.88369e-07
4.123e-08
7.85335e-07
4.15044e-08
7.8228e-07
4.18038e-08
7.79213e-07
4.19297e-08
7.76186e-07
4.08661e-08
7.73142e-07
4.10899e-08
7.70082e-07
4.12927e-08
7.66995e-07
4.17368e-08
7.63946e-07
4.07382e-08
7.60873e-07
4.11199e-08
7.57848e-07
3.99325e-08
7.54729e-07
4.18065e-08
7.51721e-07
3.92905e-08
7.48612e-07
4.1284e-08
7.45547e-07
4.02252e-08
7.42443e-07
4.0871e-08
7.39383e-07
3.98111e-08
7.36275e-07
4.06633e-08
7.33155e-07
4.0757e-08
7.30084e-07
3.96188e-08
7.27013e-07
3.94794e-08
7.2389e-07
4.03865e-08
7.20789e-07
3.98081e-08
7.17647e-07
4.0441e-08
7.14552e-07
3.93717e-08
7.11461e-07
3.91413e-08
7.083e-07
4.0392e-08
7.05168e-07
3.95986e-08
7.02036e-07
3.94746e-08
6.98903e-07
3.93597e-08
6.95787e-07
3.87945e-08
6.92649e-07
3.9105e-08
6.89454e-07
3.99757e-08
6.86308e-07
3.88794e-08
6.83112e-07
3.96165e-08
6.79944e-07
3.8915e-08
6.76773e-07
3.87049e-08
6.73587e-07
3.87727e-08
6.70368e-07