# Probe 0 (0.5 0.5 0.05)
# Time        0            
199.989       -0.0333213   
199.99        -0.0333214   
199.992       -0.0333214   
199.993       -0.0333214   
199.994       -0.0333215   
199.995       -0.0333215   
199.996       -0.0333214   
199.997       -0.0333214   
199.998       -0.0333216   
199.999       -0.0333217   
200           -0.0333217   
200.001       -0.0333216   
200.002       -0.0333217   
200.003       -0.0333216   
200.004       -0.0333218   
200.005       -0.0333218   
200.006       -0.0333217   
200.007       -0.0333217   
200.008       -0.0333217   
200.009       -0.0333218   
200.01        -0.0333217   
200.011       -0.0333217   
200.012       -0.0333217   
200.013       -0.0333217   
200.014       -0.0333217   
200.015       -0.0333217   
200.016       -0.0333217   
200.017       -0.0333218   
200.018       -0.0333217   
200.019       -0.0333217   
200.02        -0.0333217   
200.021       -0.0333217   
200.022       -0.0333217   
200.023       -0.0333217   
200.024       -0.0333217   
200.025       -0.0333217   
200.026       -0.0333218   
200.027       -0.0333217   
200.028       -0.0333217   
200.029       -0.0333217   
200.03        -0.0333217   
200.031       -0.0333217   
200.032       -0.0333217   
200.033       -0.0333217   
200.034       -0.0333217   
200.035       -0.0333217   
200.036       -0.0333217   
200.037       -0.0333216   
200.038       -0.0333217   
200.039       -0.0333217   
200.04        -0.0333217   
200.041       -0.0333216   
200.042       -0.0333217   
200.043       -0.0333216   
200.044       -0.0333217   
200.045       -0.0333217   
200.046       -0.0333217   
200.047       -0.0333217   
200.048       -0.0333217   
200.049       -0.0333217   
200.05        -0.0333217   
200.051       -0.0333217   
200.052       -0.0333217   
200.053       -0.0333217   
200.054       -0.0333217   
200.055       -0.0333217   
200.056       -0.0333216   
200.057       -0.0333216   
200.058       -0.0333216   
200.059       -0.0333216   
200.06        -0.0333217   
200.061       -0.0333217   
200.062       -0.0333217   
200.063       -0.0333217   
200.064       -0.0333217   
200.065       -0.0333216   
200.066       -0.0333216   
200.067       -0.0333217   
200.068       -0.0333217   
200.069       -0.0333217   
200.07        -0.0333217   
200.071       -0.0333217   
200.072       -0.0333217   
200.073       -0.0333217   
200.074       -0.0333217   
200.075       -0.0333217   
200.076       -0.0333217   
200.077       -0.0333217   
200.078       -0.0333217   
200.079       -0.0333217   
200.08        -0.0333217   
200.081       -0.0333217   
200.082       -0.0333217   
200.083       -0.0333217   
200.084       -0.0333217   
200.085       -0.0333217   
200.086       -0.0333217   
200.087       -0.0333217   
200.088       -0.0333217   
200.089       -0.0333217   
200.09        -0.0333217   
200.091       -0.0333217   
200.092       -0.0333217   
200.093       -0.0333217   
200.094       -0.0333217   
200.095       -0.0333218   
200.096       -0.0333217   
200.097       -0.0333218   
200.098       -0.0333217   
200.099       -0.0333217   
200.1         -0.0333217   
200.101       -0.0333217   
200.102       -0.0333218   
200.103       -0.0333217   
200.104       -0.0333217   
200.105       -0.0333217   
200.106       -0.0333217   
200.107       -0.0333217   
200.108       -0.0333217   
200.109       -0.0333217   
200.11        -0.0333218   
200.111       -0.0333218   
200.112       -0.0333218   
200.113       -0.0333218   
200.114       -0.0333218   
200.115       -0.0333218   
200.116       -0.0333218   
200.117       -0.0333218   
200.118       -0.0333217   
200.119       -0.0333217   
200.12        -0.0333217   
200.121       -0.0333217   
200.122       -0.0333217   
200.123       -0.0333218   
200.124       -0.0333219   
200.125       -0.0333218   
200.126       -0.0333217   
200.127       -0.0333218   
200.128       -0.0333218   
200.129       -0.0333218   
200.13        -0.0333218   
200.131       -0.0333218   
200.132       -0.0333218   
200.133       -0.0333218   
200.134       -0.0333218   
200.135       -0.0333218   
200.136       -0.0333218   
200.137       -0.0333218   
200.138       -0.0333218   
200.139       -0.0333218   
200.14        -0.0333218   
200.141       -0.0333218   
200.142       -0.0333218   
200.143       -0.0333218   
200.144       -0.0333218   
200.145       -0.0333218   
200.146       -0.0333218   
200.147       -0.0333218   
200.148       -0.0333218   
200.149       -0.0333218   
200.15        -0.0333219   
200.151       -0.0333218   
200.152       -0.0333218   
200.153       -0.0333218   
200.154       -0.0333218   
200.155       -0.0333218   
200.156       -0.0333218   
200.157       -0.0333218   
200.158       -0.0333218   
200.159       -0.0333218   
200.16        -0.0333218   
200.161       -0.0333218   
200.162       -0.0333218   
200.163       -0.0333218   
200.164       -0.0333218   
200.165       -0.0333219   
200.166       -0.0333218   
200.167       -0.0333218   
200.168       -0.0333218   
200.169       -0.0333218   
200.17        -0.0333219   
200.171       -0.0333218   
200.172       -0.0333218   
200.173       -0.0333219   
200.174       -0.0333219   
200.175       -0.0333218   
200.176       -0.0333219   
200.177       -0.0333219   
200.178       -0.0333219   
200.179       -0.0333219   
200.18        -0.0333218   
200.181       -0.0333218   
200.182       -0.0333218   
200.183       -0.0333218   
200.184       -0.0333218   
200.185       -0.0333218   
200.186       -0.0333219   
200.187       -0.0333218   
200.188       -0.0333219   
200.189       -0.0333219   
200.19        -0.0333219   
200.191       -0.0333219   
200.192       -0.0333219   
200.193       -0.0333219   
200.194       -0.0333219   
200.195       -0.0333219   
200.196       -0.033322    
200.197       -0.0333219   
200.198       -0.0333218   
200.199       -0.0333219   
200.2         -0.0333219   
200.201       -0.0333219   
200.202       -0.0333219   
200.203       -0.033322    
200.204       -0.0333219   
200.205       -0.0333219   
200.206       -0.0333219   
200.207       -0.0333219   
200.208       -0.0333219   
200.209       -0.0333219   
200.21        -0.0333219   
200.211       -0.0333219   
200.212       -0.0333219   
200.213       -0.0333219   
200.214       -0.033322    
200.215       -0.033322    
200.216       -0.033322    
200.217       -0.0333219   
200.218       -0.033322    
200.219       -0.0333219   
200.22        -0.0333219   
200.221       -0.0333218   
200.222       -0.0333219   
200.223       -0.0333219   
200.224       -0.0333219   
200.225       -0.033322    
200.226       -0.033322    
200.227       -0.033322    
200.228       -0.0333219   
200.229       -0.0333219   
200.23        -0.0333219   
200.231       -0.0333219   
200.232       -0.0333219   
200.233       -0.0333219   
200.234       -0.033322    
200.235       -0.033322    
200.236       -0.033322    
200.237       -0.033322    
200.238       -0.033322    
200.239       -0.033322    
200.24        -0.033322    
200.241       -0.0333219   
200.242       -0.0333219   
200.243       -0.0333219   
200.244       -0.0333219   
200.245       -0.0333219   
200.246       -0.0333219   
200.247       -0.0333219   
200.248       -0.0333219   
200.249       -0.0333221   
200.25        -0.033322    
200.251       -0.033322    
200.252       -0.033322    
200.253       -0.033322    
200.254       -0.033322    
200.255       -0.033322    
200.256       -0.033322    
200.257       -0.033322    
200.258       -0.033322    
200.259       -0.033322    
200.26        -0.0333218   
200.261       -0.0333219   
200.262       -0.0333219   
200.263       -0.0333219   
200.264       -0.0333219   
200.265       -0.0333221   
200.266       -0.0333221   
200.267       -0.0333221   
200.268       -0.0333219   
200.269       -0.0333219   
200.27        -0.0333219   
200.271       -0.0333219   
200.272       -0.0333222   
200.273       -0.0333222   
200.274       -0.0333219   
200.275       -0.0333219   
200.276       -0.033322    
200.277       -0.0333221   
200.278       -0.0333221   
200.279       -0.0333221   
200.28        -0.033322    
200.281       -0.033322    
200.282       -0.033322    
200.283       -0.033322    
200.284       -0.033322    
200.285       -0.0333221   
200.286       -0.0333221   
200.287       -0.0333221   
200.288       -0.0333221   
200.289       -0.0333221   
200.29        -0.0333221   
200.291       -0.033322    
200.292       -0.033322    
200.293       -0.033322    
200.294       -0.033322    
200.295       -0.033322    
200.296       -0.033322    
200.297       -0.033322    
200.298       -0.0333222   
200.299       -0.0333222   
200.3         -0.0333222   
200.301       -0.0333221   
200.302       -0.0333221   
200.303       -0.0333221   
200.304       -0.0333221   
200.305       -0.0333221   
200.306       -0.0333219   
200.307       -0.033322    
200.308       -0.033322    
200.309       -0.0333222   
200.31        -0.0333222   
200.311       -0.0333222   
200.312       -0.0333221   
200.313       -0.0333221   
200.314       -0.0333221   
200.315       -0.0333221   
200.316       -0.0333221   
200.317       -0.0333219   
200.318       -0.033322    
200.319       -0.0333221   
200.32        -0.0333221   
200.321       -0.0333221   
200.322       -0.0333221   
200.323       -0.0333221   
200.324       -0.0333221   
200.325       -0.0333221   
200.326       -0.0333221   
200.327       -0.0333221   
200.328       -0.0333221   
200.329       -0.0333221   
200.33        -0.0333221   
200.331       -0.0333221   
200.332       -0.0333221   
200.333       -0.0333221   
200.334       -0.0333221   
200.335       -0.0333221   
200.336       -0.0333221   
200.337       -0.0333221   
200.338       -0.0333221   
200.339       -0.0333221   
200.34        -0.0333222   
200.341       -0.0333222   
200.342       -0.0333222   
200.343       -0.0333222   
200.344       -0.0333222   
200.345       -0.0333222   
200.346       -0.0333222   
200.347       -0.0333219   
200.348       -0.0333222   
200.349       -0.0333222   
200.35        -0.0333221   
200.351       -0.0333222   
200.352       -0.0333222   
200.353       -0.0333222   
200.354       -0.0333222   
200.355       -0.0333222   
200.356       -0.0333222   
200.357       -0.0333222   
200.358       -0.0333221   
200.359       -0.0333221   
200.36        -0.0333222   
200.361       -0.0333222   
200.362       -0.0333221   
200.363       -0.0333222   
200.364       -0.0333222   
200.365       -0.0333222   
200.366       -0.0333222   
200.367       -0.0333222   
200.368       -0.0333222   
200.369       -0.0333222   
200.37        -0.0333221   
200.371       -0.0333221   
200.372       -0.0333222   
200.373       -0.0333221   
200.374       -0.0333222   
200.375       -0.0333222   
200.376       -0.0333222   
200.377       -0.0333222   
200.378       -0.0333222   
200.379       -0.0333222   
200.38        -0.0333222   
200.381       -0.0333222   
200.382       -0.0333222   
200.383       -0.0333222   
200.384       -0.0333222   
200.385       -0.0333222   
200.386       -0.0333222   
200.387       -0.0333222   
200.388       -0.0333222   
200.389       -0.0333222   
200.39        -0.0333222   
200.391       -0.0333222   
200.392       -0.0333222   
200.393       -0.0333222   
200.394       -0.0333222   
200.395       -0.0333222   
200.396       -0.0333222   
200.397       -0.0333222   
200.398       -0.0333222   
200.399       -0.0333222   
200.4         -0.0333222   
200.401       -0.0333222   
200.402       -0.0333223   
200.403       -0.0333223   
200.404       -0.0333222   
200.405       -0.0333223   
200.406       -0.0333223   
200.407       -0.0333223   
200.408       -0.0333222   
200.409       -0.0333222   
200.41        -0.0333222   
200.411       -0.0333222   
200.412       -0.0333222   
200.413       -0.0333222   
200.414       -0.0333222   
200.415       -0.0333222   
200.416       -0.0333225   
200.417       -0.0333223   
200.418       -0.0333222   
200.419       -0.0333223   
200.42        -0.0333222   
200.421       -0.0333223   
200.422       -0.0333223   
200.423       -0.0333223   
200.424       -0.0333223   
200.425       -0.0333223   
200.426       -0.0333224   
200.427       -0.0333223   
200.428       -0.0333222   
200.429       -0.0333224   
200.43        -0.0333223   
200.431       -0.0333223   
200.432       -0.0333223   
200.433       -0.0333224   
200.434       -0.0333223   
200.435       -0.0333224   
200.436       -0.0333223   
200.437       -0.0333223   
200.438       -0.0333224   
200.439       -0.0333224   
200.44        -0.0333224   
200.441       -0.0333223   
200.442       -0.0333223   
200.443       -0.0333223   
200.444       -0.0333224   
200.445       -0.0333224   
200.446       -0.0333223   
200.447       -0.0333223   
200.448       -0.0333223   
200.449       -0.0333223   
200.45        -0.0333224   
200.451       -0.0333223   
200.452       -0.0333224   
200.453       -0.0333224   
200.454       -0.0333224   
200.455       -0.0333224   
200.456       -0.0333224   
200.457       -0.0333224   
200.458       -0.0333224   
200.459       -0.0333223   
200.46        -0.0333224   
200.461       -0.0333224   
200.462       -0.0333224   
200.463       -0.0333224   
200.464       -0.0333223   
200.465       -0.0333224   
200.466       -0.0333224   
200.467       -0.0333224   
200.468       -0.0333224   
200.469       -0.0333224   
200.47        -0.0333224   
200.471       -0.0333224   
200.472       -0.0333224   
200.473       -0.0333224   
200.474       -0.0333224   
200.475       -0.0333224   
200.476       -0.0333224   
200.477       -0.0333224   
200.478       -0.0333224   
200.479       -0.0333224   
200.48        -0.0333224   
200.481       -0.0333224   
200.482       -0.0333224   
200.483       -0.0333224   
200.484       -0.0333224   
200.485       -0.0333224   
200.486       -0.0333224   
200.487       -0.0333224   
200.488       -0.0333224   
200.489       -0.0333224   
200.49        -0.0333224   
200.491       -0.0333224   
200.492       -0.0333224   
200.493       -0.0333224   
200.494       -0.0333224   
200.495       -0.0333224   
200.496       -0.0333225   
200.497       -0.0333224   
200.498       -0.0333224   
200.499       -0.0333224   
200.5         -0.0333224   
200.501       -0.0333224   
200.502       -0.0333224   
200.503       -0.0333224   
200.504       -0.0333224   
200.505       -0.0333224   
200.506       -0.0333224   
200.507       -0.0333224   
200.508       -0.0333224   
200.509       -0.0333225   
200.51        -0.0333225   
200.511       -0.0333225   
200.512       -0.0333225   
200.513       -0.0333225   
200.514       -0.0333225   
200.515       -0.0333223   
200.516       -0.0333224   
200.517       -0.0333224   
200.518       -0.0333224   
200.519       -0.0333224   
200.52        -0.0333224   
200.521       -0.0333225   
200.522       -0.0333225   
200.523       -0.0333225   
200.524       -0.0333225   
200.525       -0.0333225   
200.526       -0.0333225   
200.527       -0.0333224   
200.528       -0.0333224   
200.529       -0.0333224   
200.53        -0.0333225   
200.531       -0.0333225   
200.532       -0.0333225   
200.533       -0.0333225   
200.534       -0.0333225   
200.535       -0.0333225   
200.536       -0.0333225   
200.537       -0.0333225   
200.538       -0.0333225   
200.539       -0.0333225   
200.54        -0.0333225   
200.541       -0.0333225   
200.542       -0.0333225   
200.543       -0.0333225   
200.544       -0.0333225   
200.545       -0.0333225   
200.546       -0.0333225   
200.547       -0.0333225   
200.548       -0.0333225   
200.549       -0.0333225   
200.55        -0.0333226   
200.551       -0.0333225   
200.552       -0.0333225   
200.553       -0.0333225   
200.554       -0.0333225   
200.555       -0.0333225   
200.556       -0.0333225   
200.557       -0.0333225   
200.558       -0.0333225   
200.559       -0.0333225   
200.56        -0.0333225   
200.561       -0.0333225   
200.562       -0.0333224   
200.563       -0.0333224   
200.564       -0.0333225   
200.565       -0.0333226   
200.566       -0.0333226   
200.567       -0.0333226   
200.568       -0.0333225   
200.569       -0.0333225   
200.57        -0.0333225   
200.571       -0.0333226   
200.572       -0.0333226   
200.573       -0.0333226   
200.574       -0.0333226   
200.575       -0.0333226   
200.576       -0.0333225   
200.577       -0.0333225   
200.578       -0.0333225   
200.579       -0.0333225   
200.58        -0.0333225   
200.581       -0.0333225   
200.582       -0.0333225   
200.583       -0.0333225   
200.584       -0.0333225   
200.585       -0.0333225   
200.586       -0.0333225   
200.587       -0.0333225   
200.588       -0.0333227   
200.589       -0.0333227   
200.59        -0.0333225   
200.591       -0.0333225   
200.592       -0.0333225   
200.593       -0.0333226   
200.594       -0.0333226   
200.595       -0.0333226   
200.596       -0.0333226   
200.597       -0.0333226   
200.598       -0.0333226   
200.599       -0.0333226   
200.6         -0.0333226   
200.601       -0.0333225   
200.602       -0.0333226   
200.603       -0.0333226   
200.604       -0.0333226   
200.605       -0.0333226   
200.606       -0.0333226   
200.607       -0.0333228   
200.608       -0.0333227   
200.609       -0.0333225   
200.61        -0.0333225   
200.611       -0.0333226   
200.612       -0.0333226   
200.613       -0.0333226   
200.614       -0.0333226   
200.615       -0.0333226   
200.616       -0.0333226   
200.617       -0.0333226   
200.618       -0.0333227   
200.619       -0.0333226   
200.62        -0.0333226   
200.621       -0.0333226   
200.622       -0.0333226   
200.623       -0.0333226   
200.624       -0.0333226   
200.625       -0.0333226   
200.626       -0.0333226   
200.627       -0.0333226   
200.628       -0.0333226   
200.629       -0.0333226   
200.63        -0.0333227   
200.631       -0.0333227   
200.632       -0.0333227   
200.633       -0.0333227   
200.634       -0.0333227   
200.635       -0.0333226   
200.636       -0.0333226   
200.637       -0.0333226   
200.638       -0.0333226   
200.639       -0.0333226   
200.64        -0.0333226   
200.641       -0.0333228   
200.642       -0.0333228   
200.643       -0.0333226   
200.644       -0.0333227   
200.645       -0.0333227   
200.646       -0.0333227   
200.647       -0.0333226   
200.648       -0.0333226   
200.649       -0.0333227   
200.65        -0.0333227   
200.651       -0.0333227   
200.652       -0.0333227   
200.653       -0.0333227   
200.654       -0.0333227   
200.655       -0.0333229   
200.656       -0.0333227   
200.657       -0.0333227   
200.658       -0.0333227   
200.659       -0.0333227   
200.66        -0.0333227   
200.661       -0.0333227   
200.662       -0.0333227   
200.663       -0.0333227   
200.664       -0.0333227   
200.665       -0.0333227   
200.666       -0.0333227   
200.667       -0.0333227   
200.668       -0.0333227   
200.669       -0.0333227   
200.67        -0.0333228   
200.671       -0.0333228   
200.672       -0.0333227   
200.673       -0.0333227   
200.674       -0.0333227   
200.675       -0.0333227   
200.676       -0.0333227   
200.677       -0.0333228   
200.678       -0.0333227   
200.679       -0.0333227   
200.68        -0.0333227   
200.681       -0.0333227   
200.682       -0.0333229   
200.683       -0.0333228   
200.684       -0.0333227   
200.685       -0.0333229   
200.686       -0.0333228   
200.687       -0.0333227   
200.688       -0.0333228   
200.689       -0.0333228   
200.69        -0.0333228   
200.691       -0.0333228   
200.692       -0.0333228   
200.693       -0.0333228   
200.694       -0.0333228   
200.695       -0.0333228   
200.696       -0.0333228   
200.697       -0.0333228   
200.698       -0.0333228   
200.699       -0.0333228   
200.7         -0.0333228   
200.701       -0.0333228   
200.702       -0.0333228   
200.703       -0.0333228   
200.704       -0.0333228   
200.705       -0.0333228   
200.706       -0.0333228   
200.707       -0.0333228   
200.708       -0.0333228   
200.709       -0.0333228   
200.71        -0.0333228   
200.711       -0.0333228   
200.712       -0.0333228   
200.713       -0.0333228   
200.714       -0.0333228   
200.715       -0.0333228   
200.716       -0.0333228   
200.717       -0.0333228   
200.718       -0.0333228   
200.719       -0.0333228   
200.72        -0.0333228   
200.721       -0.0333228   
200.722       -0.0333229   
200.723       -0.0333228   
200.724       -0.0333228   
200.725       -0.0333228   
200.726       -0.0333228   
200.727       -0.0333228   
200.728       -0.0333229   
200.729       -0.0333229   
200.73        -0.0333229   
200.731       -0.0333228   
200.732       -0.0333229   
200.733       -0.0333228   
200.734       -0.0333228   
200.735       -0.0333228   
200.736       -0.0333228   
200.737       -0.0333228   
200.738       -0.033323    
200.739       -0.0333229   
200.74        -0.0333229   
200.741       -0.0333229   
200.742       -0.0333229   
200.743       -0.0333228   
200.744       -0.0333228   
200.745       -0.0333229   
200.746       -0.0333229   
200.747       -0.0333229   
200.748       -0.0333229   
200.749       -0.0333229   
200.75        -0.0333229   
200.751       -0.0333229   
200.752       -0.0333229   
200.753       -0.0333229   
200.754       -0.0333228   
200.755       -0.0333229   
200.756       -0.0333229   
200.757       -0.0333229   
200.758       -0.033323    
200.759       -0.033323    
200.76        -0.033323    
200.761       -0.0333228   
200.762       -0.0333228   
200.763       -0.033323    
200.764       -0.033323    
200.765       -0.033323    
200.766       -0.033323    
200.767       -0.0333228   
200.768       -0.0333229   
200.769       -0.0333229   
200.77        -0.033323    
200.771       -0.033323    
200.772       -0.033323    
200.773       -0.033323    
200.774       -0.033323    
200.775       -0.0333229   
200.776       -0.0333229   
200.777       -0.0333229   
200.778       -0.0333229   
200.779       -0.0333229   
200.78        -0.0333229   
200.781       -0.0333229   
200.782       -0.0333228   
200.783       -0.033323    
200.784       -0.033323    
200.785       -0.033323    
200.786       -0.033323    
200.787       -0.033323    
200.788       -0.0333229   
200.789       -0.0333229   
200.79        -0.033323    
200.791       -0.0333229   
200.792       -0.0333229   
200.793       -0.0333229   
200.794       -0.033323    
200.795       -0.0333231   
200.796       -0.0333231   
200.797       -0.033323    
200.798       -0.033323    
200.799       -0.0333228   
200.8         -0.0333229   
200.801       -0.033323    
200.802       -0.0333231   
200.803       -0.033323    
200.804       -0.033323    
200.805       -0.033323    
200.806       -0.0333229   
200.807       -0.033323    
200.808       -0.033323    
200.809       -0.033323    
200.81        -0.033323    
200.811       -0.033323    
200.812       -0.033323    
200.813       -0.033323    
200.814       -0.033323    
200.815       -0.033323    
200.816       -0.033323    
200.817       -0.033323    
200.818       -0.033323    
200.819       -0.033323    
200.82        -0.033323    
200.821       -0.033323    
200.822       -0.0333229   
200.823       -0.033323    
200.824       -0.033323    
200.825       -0.0333231   
200.826       -0.0333231   
200.827       -0.0333231   
200.828       -0.033323    
200.829       -0.033323    
200.83        -0.033323    
200.831       -0.033323    
200.832       -0.033323    
200.833       -0.033323    
200.834       -0.033323    
200.835       -0.033323    
200.836       -0.033323    
200.837       -0.033323    
200.838       -0.033323    
200.839       -0.0333231   
200.84        -0.0333231   
200.841       -0.0333231   
200.842       -0.0333231   
200.843       -0.0333231   
200.844       -0.0333231   
200.845       -0.0333231   
200.846       -0.0333231   
200.847       -0.033323    
200.848       -0.033323    
200.849       -0.0333231   
200.85        -0.0333231   
200.851       -0.0333231   
200.852       -0.0333231   
200.853       -0.0333231   
200.854       -0.033323    
200.855       -0.0333231   
200.856       -0.0333231   
200.857       -0.0333231   
200.858       -0.0333231   
200.859       -0.0333231   
200.86        -0.0333231   
200.861       -0.0333231   
200.862       -0.0333231   
200.863       -0.0333231   
200.864       -0.0333231   
200.865       -0.0333231   
200.866       -0.0333231   
200.867       -0.0333231   
200.868       -0.0333231   
200.869       -0.0333231   
200.87        -0.0333231   
200.871       -0.0333231   
200.872       -0.0333231   
200.873       -0.0333231   
200.874       -0.0333231   
200.875       -0.0333231   
200.876       -0.0333231   
200.877       -0.0333231   
200.878       -0.0333231   
200.879       -0.0333231   
200.88        -0.0333231   
200.881       -0.0333231   
200.882       -0.0333231   
200.883       -0.0333231   
200.884       -0.0333231   
200.885       -0.0333231   
200.886       -0.0333231   
200.887       -0.0333231   
200.888       -0.0333231   
200.889       -0.0333231   
200.89        -0.0333232   
200.891       -0.0333232   
200.892       -0.0333232   
200.893       -0.0333232   
200.894       -0.0333232   
200.895       -0.0333232   
200.896       -0.0333231   
200.897       -0.0333231   
200.898       -0.0333231   
200.899       -0.0333231   
200.9         -0.0333231   
200.901       -0.0333232   
200.902       -0.0333233   
200.903       -0.0333231   
200.904       -0.0333232   
200.905       -0.0333232   
200.906       -0.0333232   
200.907       -0.0333232   
200.908       -0.0333232   
200.909       -0.0333232   
200.91        -0.0333232   
200.911       -0.0333232   
200.912       -0.0333233   
200.913       -0.0333233   
200.914       -0.0333231   
200.915       -0.0333232   
200.916       -0.0333232   
200.917       -0.0333232   
200.918       -0.0333232   
200.919       -0.0333232   
200.92        -0.0333232   
200.921       -0.0333233   
200.922       -0.0333233   
200.923       -0.0333232   
200.924       -0.0333232   
200.925       -0.0333232   
200.926       -0.0333232   
200.927       -0.0333232   
200.928       -0.0333232   
200.929       -0.0333232   
200.93        -0.0333232   
200.931       -0.0333233   
200.932       -0.0333233   
200.933       -0.0333233   
200.934       -0.0333233   
200.935       -0.0333233   
200.936       -0.0333233   
200.937       -0.0333232   
200.938       -0.0333232   
200.939       -0.0333232   
200.94        -0.0333231   
200.941       -0.0333233   
200.942       -0.0333233   
200.943       -0.0333233   
200.944       -0.0333233   
200.945       -0.0333233   
200.946       -0.0333232   
200.947       -0.0333233   
200.948       -0.0333232   
200.949       -0.0333233   
200.95        -0.0333233   
200.951       -0.0333233   
200.952       -0.0333233   
200.953       -0.0333233   
200.954       -0.0333233   
200.955       -0.0333233   
200.956       -0.0333233   
200.957       -0.0333233   
200.958       -0.0333233   
200.959       -0.0333233   
200.96        -0.0333233   
200.961       -0.0333233   
200.962       -0.0333234   
200.963       -0.0333234   
200.964       -0.0333234   
200.965       -0.0333234   
200.966       -0.0333234   
200.967       -0.0333232   
200.968       -0.0333233   
200.969       -0.0333233   
200.97        -0.0333234   
200.971       -0.0333234   
200.972       -0.0333234   
200.973       -0.0333234   
200.974       -0.0333233   
200.975       -0.0333233   
200.976       -0.0333233   
200.977       -0.0333233   
200.978       -0.0333233   
200.979       -0.0333233   
200.98        -0.0333233   
200.981       -0.0333233   
200.982       -0.0333234   
200.983       -0.0333234   
200.984       -0.0333234   
200.985       -0.0333234   
200.986       -0.0333234   
200.987       -0.0333234   
200.988       -0.0333234   
200.989       -0.0333234   
200.99        -0.0333234   
200.991       -0.0333233   
200.992       -0.0333233   
200.993       -0.0333233   
200.994       -0.0333234   
200.995       -0.0333234   
200.996       -0.0333234   
200.997       -0.0333234   
200.998       -0.0333234   
200.999       -0.0333234   
201           -0.0333235   
201.001       -0.0333235   
201.002       -0.0333233   
201.003       -0.0333233   
201.004       -0.0333234   
201.005       -0.0333234   
201.006       -0.0333234   
201.007       -0.0333235   
201.008       -0.0333234   
201.009       -0.0333234   
201.01        -0.0333234   
201.011       -0.0333234   
201.012       -0.0333234   
201.013       -0.0333235   
201.014       -0.0333234   
201.015       -0.0333234   
201.016       -0.0333234   
201.017       -0.0333234   
201.018       -0.0333234   
201.019       -0.0333235   
201.02        -0.0333235   
201.021       -0.0333235   
201.022       -0.0333235   
201.023       -0.0333234   
201.024       -0.0333234   
201.025       -0.0333234   
201.026       -0.0333234   
201.027       -0.0333234   
201.028       -0.0333234   
201.029       -0.0333235   
201.03        -0.0333235   
201.031       -0.0333236   
201.032       -0.0333235   
201.033       -0.0333234   
201.034       -0.0333235   
201.035       -0.0333235   
201.036       -0.0333235   
201.037       -0.0333234   
201.038       -0.0333235   
201.039       -0.0333235   
201.04        -0.0333235   
201.041       -0.0333235   
201.042       -0.0333235   
201.043       -0.0333235   
201.044       -0.0333235   
201.045       -0.0333235   
201.046       -0.0333235   
201.047       -0.0333235   
201.048       -0.0333235   
201.049       -0.0333235   
201.05        -0.0333236   
201.051       -0.0333235   
201.052       -0.0333235   
201.053       -0.0333235   
201.054       -0.0333235   
201.055       -0.0333235   
201.056       -0.0333235   
201.057       -0.0333234   
201.058       -0.0333235   