# Probe 0 (0.5 0.5 0.05)
# Time        0            
199.989       (0.974027 1.41912e-05 0)
199.99        (0.974027 1.41855e-05 0)
199.992       (0.974027 1.41801e-05 0)
199.993       (0.974027 1.4175e-05 0)
199.994       (0.974027 1.41706e-05 0)
199.995       (0.974027 1.41667e-05 0)
199.996       (0.974027 1.41633e-05 0)
199.997       (0.974027 1.41606e-05 0)
199.998       (0.974027 1.41582e-05 0)
199.999       (0.974027 1.41561e-05 0)
200           (0.974027 1.41545e-05 0)
200.001       (0.974027 1.41531e-05 0)
200.002       (0.974027 1.41519e-05 0)
200.003       (0.974027 1.41509e-05 0)
200.004       (0.974027 1.41501e-05 0)
200.005       (0.974027 1.41494e-05 0)
200.006       (0.974027 1.41488e-05 0)
200.007       (0.974027 1.41483e-05 0)
200.008       (0.974027 1.41478e-05 0)
200.009       (0.974027 1.41475e-05 0)
200.01        (0.974027 1.41471e-05 0)
200.011       (0.974027 1.41469e-05 0)
200.012       (0.974027 1.41466e-05 0)
200.013       (0.974027 1.41465e-05 0)
200.014       (0.974027 1.41463e-05 0)
200.015       (0.974027 1.41462e-05 0)
200.016       (0.974027 1.41461e-05 0)
200.017       (0.974027 1.41461e-05 0)
200.018       (0.974027 1.4146e-05 0)
200.019       (0.974027 1.4146e-05 0)
200.02        (0.974027 1.4146e-05 0)
200.021       (0.974027 1.41461e-05 0)
200.022       (0.974027 1.41461e-05 0)
200.023       (0.974027 1.41462e-05 0)
200.024       (0.974027 1.41462e-05 0)
200.025       (0.974027 1.41463e-05 0)
200.026       (0.974027 1.41464e-05 0)
200.027       (0.974027 1.41465e-05 0)
200.028       (0.974027 1.41466e-05 0)
200.029       (0.974027 1.41468e-05 0)
200.03        (0.974027 1.41469e-05 0)
200.031       (0.974027 1.4147e-05 0)
200.032       (0.974027 1.41471e-05 0)
200.033       (0.974027 1.41473e-05 0)
200.034       (0.974027 1.41474e-05 0)
200.035       (0.974027 1.41475e-05 0)
200.036       (0.974027 1.41477e-05 0)
200.037       (0.974027 1.41478e-05 0)
200.038       (0.974027 1.41479e-05 0)
200.039       (0.974027 1.4148e-05 0)
200.04        (0.974027 1.41482e-05 0)
200.041       (0.974027 1.41483e-05 0)
200.042       (0.974027 1.41484e-05 0)
200.043       (0.974027 1.41485e-05 0)
200.044       (0.974027 1.41486e-05 0)
200.045       (0.974027 1.41487e-05 0)
200.046       (0.974027 1.41488e-05 0)
200.047       (0.974027 1.41489e-05 0)
200.048       (0.974027 1.41489e-05 0)
200.049       (0.974027 1.4149e-05 0)
200.05        (0.974027 1.41491e-05 0)
200.051       (0.974027 1.41492e-05 0)
200.052       (0.974027 1.41492e-05 0)
200.053       (0.974027 1.41493e-05 0)
200.054       (0.974027 1.41493e-05 0)
200.055       (0.974027 1.41493e-05 0)
200.056       (0.974027 1.41494e-05 0)
200.057       (0.974027 1.41494e-05 0)
200.058       (0.974027 1.41494e-05 0)
200.059       (0.974027 1.41494e-05 0)
200.06        (0.974027 1.41494e-05 0)
200.061       (0.974027 1.41494e-05 0)
200.062       (0.974027 1.41494e-05 0)
200.063       (0.974027 1.41494e-05 0)
200.064       (0.974027 1.41494e-05 0)
200.065       (0.974027 1.41494e-05 0)
200.066       (0.974027 1.41494e-05 0)
200.067       (0.974027 1.41494e-05 0)
200.068       (0.974027 1.41493e-05 0)
200.069       (0.974027 1.41493e-05 0)
200.07        (0.974027 1.41493e-05 0)
200.071       (0.974027 1.41493e-05 0)
200.072       (0.974027 1.41492e-05 0)
200.073       (0.974027 1.41492e-05 0)
200.074       (0.974027 1.41492e-05 0)
200.075       (0.974027 1.41491e-05 0)
200.076       (0.974027 1.41491e-05 0)
200.077       (0.974027 1.41491e-05 0)
200.078       (0.974027 1.4149e-05 0)
200.079       (0.974027 1.4149e-05 0)
200.08        (0.974027 1.4149e-05 0)
200.081       (0.974027 1.41489e-05 0)
200.082       (0.974027 1.41489e-05 0)
200.083       (0.974027 1.41489e-05 0)
200.084       (0.974027 1.41488e-05 0)
200.085       (0.974027 1.41488e-05 0)
200.086       (0.974027 1.41488e-05 0)
200.087       (0.974027 1.41487e-05 0)
200.088       (0.974027 1.41487e-05 0)
200.089       (0.974027 1.41487e-05 0)
200.09        (0.974027 1.41487e-05 0)
200.091       (0.974027 1.41487e-05 0)
200.092       (0.974027 1.41487e-05 0)
200.093       (0.974027 1.41486e-05 0)
200.094       (0.974027 1.41486e-05 0)
200.095       (0.974027 1.41486e-05 0)
200.096       (0.974027 1.41486e-05 0)
200.097       (0.974027 1.41486e-05 0)
200.098       (0.974027 1.41486e-05 0)
200.099       (0.974027 1.41486e-05 0)
200.1         (0.974027 1.41486e-05 0)
200.101       (0.974027 1.41486e-05 0)
200.102       (0.974027 1.41486e-05 0)
200.103       (0.974027 1.41486e-05 0)
200.104       (0.974027 1.41486e-05 0)
200.105       (0.974027 1.41486e-05 0)
200.106       (0.974027 1.41485e-05 0)
200.107       (0.974027 1.41486e-05 0)
200.108       (0.974027 1.41486e-05 0)
200.109       (0.974027 1.41486e-05 0)
200.11        (0.974027 1.41486e-05 0)
200.111       (0.974027 1.41486e-05 0)
200.112       (0.974027 1.41486e-05 0)
200.113       (0.974027 1.41486e-05 0)
200.114       (0.974027 1.41486e-05 0)
200.115       (0.974027 1.41486e-05 0)
200.116       (0.974027 1.41486e-05 0)
200.117       (0.974027 1.41486e-05 0)
200.118       (0.974027 1.41486e-05 0)
200.119       (0.974027 1.41487e-05 0)
200.12        (0.974027 1.41486e-05 0)
200.121       (0.974027 1.41486e-05 0)
200.122       (0.974027 1.41487e-05 0)
200.123       (0.974027 1.41487e-05 0)
200.124       (0.974027 1.41487e-05 0)
200.125       (0.974027 1.41487e-05 0)
200.126       (0.974027 1.41487e-05 0)
200.127       (0.974027 1.41487e-05 0)
200.128       (0.974027 1.41487e-05 0)
200.129       (0.974027 1.41487e-05 0)
200.13        (0.974027 1.41487e-05 0)
200.131       (0.974027 1.41487e-05 0)
200.132       (0.974027 1.41487e-05 0)
200.133       (0.974027 1.41487e-05 0)
200.134       (0.974027 1.41487e-05 0)
200.135       (0.974027 1.41487e-05 0)
200.136       (0.974027 1.41487e-05 0)
200.137       (0.974027 1.41487e-05 0)
200.138       (0.974027 1.41487e-05 0)
200.139       (0.974027 1.41487e-05 0)
200.14        (0.974027 1.41487e-05 0)
200.141       (0.974027 1.41487e-05 0)
200.142       (0.974027 1.41487e-05 0)
200.143       (0.974027 1.41487e-05 0)
200.144       (0.974027 1.41487e-05 0)
200.145       (0.974027 1.41487e-05 0)
200.146       (0.974027 1.41487e-05 0)
200.147       (0.974027 1.41487e-05 0)
200.148       (0.974027 1.41486e-05 0)
200.149       (0.974027 1.41486e-05 0)
200.15        (0.974027 1.41486e-05 0)
200.151       (0.974027 1.41486e-05 0)
200.152       (0.974027 1.41486e-05 0)
200.153       (0.974027 1.41486e-05 0)
200.154       (0.974027 1.41486e-05 0)
200.155       (0.974027 1.41486e-05 0)
200.156       (0.974027 1.41486e-05 0)
200.157       (0.974027 1.41485e-05 0)
200.158       (0.974027 1.41486e-05 0)
200.159       (0.974027 1.41485e-05 0)
200.16        (0.974027 1.41485e-05 0)
200.161       (0.974027 1.41485e-05 0)
200.162       (0.974027 1.41485e-05 0)
200.163       (0.974027 1.41485e-05 0)
200.164       (0.974027 1.41485e-05 0)
200.165       (0.974027 1.41485e-05 0)
200.166       (0.974027 1.41484e-05 0)
200.167       (0.974027 1.41485e-05 0)
200.168       (0.974027 1.41484e-05 0)
200.169       (0.974027 1.41485e-05 0)
200.17        (0.974027 1.41484e-05 0)
200.171       (0.974027 1.41484e-05 0)
200.172       (0.974027 1.41484e-05 0)
200.173       (0.974027 1.41484e-05 0)
200.174       (0.974027 1.41484e-05 0)
200.175       (0.974027 1.41483e-05 0)
200.176       (0.974027 1.41484e-05 0)
200.177       (0.974027 1.41484e-05 0)
200.178       (0.974027 1.41484e-05 0)
200.179       (0.974027 1.41484e-05 0)
200.18        (0.974027 1.41484e-05 0)
200.181       (0.974027 1.41484e-05 0)
200.182       (0.974027 1.41484e-05 0)
200.183       (0.974027 1.41484e-05 0)
200.184       (0.974027 1.41484e-05 0)
200.185       (0.974027 1.41484e-05 0)
200.186       (0.974027 1.41484e-05 0)
200.187       (0.974027 1.41484e-05 0)
200.188       (0.974027 1.41484e-05 0)
200.189       (0.974027 1.41484e-05 0)
200.19        (0.974027 1.41484e-05 0)
200.191       (0.974027 1.41484e-05 0)
200.192       (0.974027 1.41484e-05 0)
200.193       (0.974027 1.41484e-05 0)
200.194       (0.974027 1.41484e-05 0)
200.195       (0.974027 1.41484e-05 0)
200.196       (0.974027 1.41485e-05 0)
200.197       (0.974027 1.41484e-05 0)
200.198       (0.974027 1.41484e-05 0)
200.199       (0.974027 1.41484e-05 0)
200.2         (0.974027 1.41484e-05 0)
200.201       (0.974027 1.41485e-05 0)
200.202       (0.974027 1.41485e-05 0)
200.203       (0.974027 1.41485e-05 0)
200.204       (0.974027 1.41484e-05 0)
200.205       (0.974027 1.41485e-05 0)
200.206       (0.974027 1.41485e-05 0)
200.207       (0.974027 1.41485e-05 0)
200.208       (0.974027 1.41485e-05 0)
200.209       (0.974027 1.41485e-05 0)
200.21        (0.974027 1.41485e-05 0)
200.211       (0.974027 1.41485e-05 0)
200.212       (0.974027 1.41485e-05 0)
200.213       (0.974027 1.41485e-05 0)
200.214       (0.974027 1.41486e-05 0)
200.215       (0.974027 1.41485e-05 0)
200.216       (0.974027 1.41485e-05 0)
200.217       (0.974027 1.41486e-05 0)
200.218       (0.974027 1.41486e-05 0)
200.219       (0.974027 1.41486e-05 0)
200.22        (0.974027 1.41486e-05 0)
200.221       (0.974027 1.41486e-05 0)
200.222       (0.974027 1.41486e-05 0)
200.223       (0.974027 1.41486e-05 0)
200.224       (0.974027 1.41486e-05 0)
200.225       (0.974027 1.41486e-05 0)
200.226       (0.974027 1.41486e-05 0)
200.227       (0.974027 1.41486e-05 0)
200.228       (0.974027 1.41486e-05 0)
200.229       (0.974027 1.41486e-05 0)
200.23        (0.974027 1.41486e-05 0)
200.231       (0.974027 1.41487e-05 0)
200.232       (0.974027 1.41487e-05 0)
200.233       (0.974027 1.41487e-05 0)
200.234       (0.974027 1.41487e-05 0)
200.235       (0.974027 1.41486e-05 0)
200.236       (0.974027 1.41486e-05 0)
200.237       (0.974027 1.41487e-05 0)
200.238       (0.974027 1.41487e-05 0)
200.239       (0.974027 1.41487e-05 0)
200.24        (0.974027 1.41486e-05 0)
200.241       (0.974027 1.41487e-05 0)
200.242       (0.974027 1.41487e-05 0)
200.243       (0.974027 1.41486e-05 0)
200.244       (0.974027 1.41486e-05 0)
200.245       (0.974027 1.41486e-05 0)
200.246       (0.974027 1.41486e-05 0)
200.247       (0.974027 1.41486e-05 0)
200.248       (0.974027 1.41486e-05 0)
200.249       (0.974027 1.41486e-05 0)
200.25        (0.974027 1.41486e-05 0)
200.251       (0.974027 1.41486e-05 0)
200.252       (0.974027 1.41486e-05 0)
200.253       (0.974027 1.41486e-05 0)
200.254       (0.974027 1.41486e-05 0)
200.255       (0.974027 1.41486e-05 0)
200.256       (0.974027 1.41486e-05 0)
200.257       (0.974027 1.41486e-05 0)
200.258       (0.974027 1.41486e-05 0)
200.259       (0.974027 1.41486e-05 0)
200.26        (0.974027 1.41486e-05 0)
200.261       (0.974027 1.41486e-05 0)
200.262       (0.974027 1.41486e-05 0)
200.263       (0.974027 1.41485e-05 0)
200.264       (0.974027 1.41485e-05 0)
200.265       (0.974027 1.41485e-05 0)
200.266       (0.974027 1.41485e-05 0)
200.267       (0.974027 1.41485e-05 0)
200.268       (0.974027 1.41485e-05 0)
200.269       (0.974027 1.41485e-05 0)
200.27        (0.974027 1.41485e-05 0)
200.271       (0.974027 1.41485e-05 0)
200.272       (0.974027 1.41485e-05 0)
200.273       (0.974027 1.41485e-05 0)
200.274       (0.974027 1.41485e-05 0)
200.275       (0.974027 1.41484e-05 0)
200.276       (0.974027 1.41484e-05 0)
200.277       (0.974027 1.41485e-05 0)
200.278       (0.974027 1.41484e-05 0)
200.279       (0.974027 1.41484e-05 0)
200.28        (0.974027 1.41484e-05 0)
200.281       (0.974027 1.41484e-05 0)
200.282       (0.974027 1.41484e-05 0)
200.283       (0.974027 1.41484e-05 0)
200.284       (0.974027 1.41484e-05 0)
200.285       (0.974027 1.41484e-05 0)
200.286       (0.974027 1.41484e-05 0)
200.287       (0.974027 1.41484e-05 0)
200.288       (0.974027 1.41484e-05 0)
200.289       (0.974027 1.41483e-05 0)
200.29        (0.974027 1.41483e-05 0)
200.291       (0.974027 1.41483e-05 0)
200.292       (0.974027 1.41484e-05 0)
200.293       (0.974027 1.41484e-05 0)
200.294       (0.974027 1.41484e-05 0)
200.295       (0.974027 1.41483e-05 0)
200.296       (0.974027 1.41483e-05 0)
200.297       (0.974027 1.41483e-05 0)
200.298       (0.974027 1.41483e-05 0)
200.299       (0.974027 1.41483e-05 0)
200.3         (0.974027 1.41483e-05 0)
200.301       (0.974027 1.41484e-05 0)
200.302       (0.974027 1.41483e-05 0)
200.303       (0.974027 1.41483e-05 0)
200.304       (0.974027 1.41483e-05 0)
200.305       (0.974027 1.41483e-05 0)
200.306       (0.974027 1.41483e-05 0)
200.307       (0.974027 1.41483e-05 0)
200.308       (0.974027 1.41483e-05 0)
200.309       (0.974027 1.41483e-05 0)
200.31        (0.974027 1.41483e-05 0)
200.311       (0.974027 1.41483e-05 0)
200.312       (0.974027 1.41483e-05 0)
200.313       (0.974027 1.41483e-05 0)
200.314       (0.974027 1.41483e-05 0)
200.315       (0.974027 1.41483e-05 0)
200.316       (0.974027 1.41484e-05 0)
200.317       (0.974027 1.41484e-05 0)
200.318       (0.974027 1.41484e-05 0)
200.319       (0.974027 1.41483e-05 0)
200.32        (0.974027 1.41483e-05 0)
200.321       (0.974027 1.41484e-05 0)
200.322       (0.974027 1.41484e-05 0)
200.323       (0.974027 1.41484e-05 0)
200.324       (0.974027 1.41484e-05 0)
200.325       (0.974027 1.41483e-05 0)
200.326       (0.974027 1.41484e-05 0)
200.327       (0.974027 1.41484e-05 0)
200.328       (0.974027 1.41484e-05 0)
200.329       (0.974027 1.41484e-05 0)
200.33        (0.974027 1.41484e-05 0)
200.331       (0.974027 1.41484e-05 0)
200.332       (0.974027 1.41483e-05 0)
200.333       (0.974027 1.41484e-05 0)
200.334       (0.974027 1.41484e-05 0)
200.335       (0.974027 1.41484e-05 0)
200.336       (0.974027 1.41484e-05 0)
200.337       (0.974027 1.41484e-05 0)
200.338       (0.974027 1.41484e-05 0)
200.339       (0.974027 1.41484e-05 0)
200.34        (0.974027 1.41484e-05 0)
200.341       (0.974027 1.41484e-05 0)
200.342       (0.974027 1.41484e-05 0)
200.343       (0.974027 1.41484e-05 0)
200.344       (0.974027 1.41484e-05 0)
200.345       (0.974027 1.41484e-05 0)
200.346       (0.974027 1.41484e-05 0)
200.347       (0.974027 1.41484e-05 0)
200.348       (0.974027 1.41484e-05 0)
200.349       (0.974027 1.41484e-05 0)
200.35        (0.974027 1.41484e-05 0)
200.351       (0.974027 1.41484e-05 0)
200.352       (0.974027 1.41484e-05 0)
200.353       (0.974027 1.41484e-05 0)
200.354       (0.974027 1.41484e-05 0)
200.355       (0.974027 1.41484e-05 0)
200.356       (0.974027 1.41484e-05 0)
200.357       (0.974027 1.41484e-05 0)
200.358       (0.974027 1.41483e-05 0)
200.359       (0.974027 1.41483e-05 0)
200.36        (0.974027 1.41483e-05 0)
200.361       (0.974027 1.41483e-05 0)
200.362       (0.974027 1.41484e-05 0)
200.363       (0.974027 1.41483e-05 0)
200.364       (0.974027 1.41484e-05 0)
200.365       (0.974027 1.41483e-05 0)
200.366       (0.974027 1.41483e-05 0)
200.367       (0.974027 1.41483e-05 0)
200.368       (0.974027 1.41483e-05 0)
200.369       (0.974027 1.41483e-05 0)
200.37        (0.974027 1.41483e-05 0)
200.371       (0.974027 1.41483e-05 0)
200.372       (0.974027 1.41483e-05 0)
200.373       (0.974027 1.41483e-05 0)
200.374       (0.974027 1.41483e-05 0)
200.375       (0.974027 1.41483e-05 0)
200.376       (0.974027 1.41483e-05 0)
200.377       (0.974027 1.41483e-05 0)
200.378       (0.974027 1.41483e-05 0)
200.379       (0.974027 1.41483e-05 0)
200.38        (0.974027 1.41483e-05 0)
200.381       (0.974027 1.41483e-05 0)
200.382       (0.974027 1.41483e-05 0)
200.383       (0.974027 1.41483e-05 0)
200.384       (0.974027 1.41483e-05 0)
200.385       (0.974027 1.41483e-05 0)
200.386       (0.974027 1.41483e-05 0)
200.387       (0.974027 1.41483e-05 0)
200.388       (0.974027 1.41483e-05 0)
200.389       (0.974027 1.41483e-05 0)
200.39        (0.974027 1.41483e-05 0)
200.391       (0.974027 1.41483e-05 0)
200.392       (0.974027 1.41483e-05 0)
200.393       (0.974027 1.41483e-05 0)
200.394       (0.974027 1.41483e-05 0)
200.395       (0.974027 1.41483e-05 0)
200.396       (0.974027 1.41483e-05 0)
200.397       (0.974027 1.41483e-05 0)
200.398       (0.974027 1.41483e-05 0)
200.399       (0.974027 1.41483e-05 0)
200.4         (0.974027 1.41483e-05 0)
200.401       (0.974027 1.41483e-05 0)
200.402       (0.974027 1.41482e-05 0)
200.403       (0.974027 1.41483e-05 0)
200.404       (0.974027 1.41483e-05 0)
200.405       (0.974027 1.41482e-05 0)
200.406       (0.974027 1.41483e-05 0)
200.407       (0.974027 1.41483e-05 0)
200.408       (0.974027 1.41483e-05 0)
200.409       (0.974027 1.41482e-05 0)
200.41        (0.974027 1.41483e-05 0)
200.411       (0.974027 1.41483e-05 0)
200.412       (0.974027 1.41482e-05 0)
200.413       (0.974027 1.41482e-05 0)
200.414       (0.974027 1.41482e-05 0)
200.415       (0.974027 1.41482e-05 0)
200.416       (0.974027 1.41482e-05 0)
200.417       (0.974027 1.41482e-05 0)
200.418       (0.974027 1.41482e-05 0)
200.419       (0.974027 1.41482e-05 0)
200.42        (0.974027 1.41482e-05 0)
200.421       (0.974027 1.41482e-05 0)
200.422       (0.974027 1.41482e-05 0)
200.423       (0.974027 1.41482e-05 0)
200.424       (0.974027 1.41482e-05 0)
200.425       (0.974027 1.41482e-05 0)
200.426       (0.974027 1.41482e-05 0)
200.427       (0.974027 1.41482e-05 0)
200.428       (0.974027 1.41482e-05 0)
200.429       (0.974027 1.41482e-05 0)
200.43        (0.974027 1.41482e-05 0)
200.431       (0.974027 1.41482e-05 0)
200.432       (0.974027 1.41482e-05 0)
200.433       (0.974027 1.41482e-05 0)
200.434       (0.974027 1.41482e-05 0)
200.435       (0.974027 1.41482e-05 0)
200.436       (0.974027 1.41482e-05 0)
200.437       (0.974027 1.41482e-05 0)
200.438       (0.974027 1.41482e-05 0)
200.439       (0.974027 1.41482e-05 0)
200.44        (0.974027 1.41482e-05 0)
200.441       (0.974027 1.41482e-05 0)
200.442       (0.974027 1.41482e-05 0)
200.443       (0.974027 1.41482e-05 0)
200.444       (0.974027 1.41482e-05 0)
200.445       (0.974027 1.41482e-05 0)
200.446       (0.974027 1.41482e-05 0)
200.447       (0.974027 1.41482e-05 0)
200.448       (0.974027 1.41482e-05 0)
200.449       (0.974027 1.41482e-05 0)
200.45        (0.974027 1.41482e-05 0)
200.451       (0.974027 1.41482e-05 0)
200.452       (0.974027 1.41482e-05 0)
200.453       (0.974027 1.41482e-05 0)
200.454       (0.974027 1.41482e-05 0)
200.455       (0.974027 1.41482e-05 0)
200.456       (0.974027 1.41482e-05 0)
200.457       (0.974027 1.41482e-05 0)
200.458       (0.974027 1.41482e-05 0)
200.459       (0.974027 1.41482e-05 0)
200.46        (0.974027 1.41482e-05 0)
200.461       (0.974027 1.41482e-05 0)
200.462       (0.974027 1.41482e-05 0)
200.463       (0.974027 1.41482e-05 0)
200.464       (0.974027 1.41482e-05 0)
200.465       (0.974027 1.41482e-05 0)
200.466       (0.974027 1.41482e-05 0)
200.467       (0.974027 1.41482e-05 0)
200.468       (0.974027 1.41482e-05 0)
200.469       (0.974027 1.41482e-05 0)
200.47        (0.974027 1.41482e-05 0)
200.471       (0.974027 1.41482e-05 0)
200.472       (0.974027 1.41482e-05 0)
200.473       (0.974027 1.41482e-05 0)
200.474       (0.974027 1.41482e-05 0)
200.475       (0.974027 1.41482e-05 0)
200.476       (0.974027 1.41482e-05 0)
200.477       (0.974027 1.41482e-05 0)
200.478       (0.974027 1.41482e-05 0)
200.479       (0.974027 1.41482e-05 0)
200.48        (0.974027 1.41482e-05 0)
200.481       (0.974027 1.41482e-05 0)
200.482       (0.974027 1.41482e-05 0)
200.483       (0.974027 1.41482e-05 0)
200.484       (0.974027 1.41482e-05 0)
200.485       (0.974027 1.41482e-05 0)
200.486       (0.974027 1.41482e-05 0)
200.487       (0.974027 1.41482e-05 0)
200.488       (0.974027 1.41482e-05 0)
200.489       (0.974027 1.41482e-05 0)
200.49        (0.974027 1.41482e-05 0)
200.491       (0.974027 1.41482e-05 0)
200.492       (0.974027 1.41482e-05 0)
200.493       (0.974027 1.41482e-05 0)
200.494       (0.974027 1.41482e-05 0)
200.495       (0.974027 1.41482e-05 0)
200.496       (0.974027 1.41482e-05 0)
200.497       (0.974027 1.41482e-05 0)
200.498       (0.974027 1.41482e-05 0)
200.499       (0.974027 1.41482e-05 0)
200.5         (0.974027 1.41482e-05 0)
200.501       (0.974027 1.41482e-05 0)
200.502       (0.974027 1.41482e-05 0)
200.503       (0.974027 1.41482e-05 0)
200.504       (0.974027 1.41482e-05 0)
200.505       (0.974027 1.41482e-05 0)
200.506       (0.974027 1.41482e-05 0)
200.507       (0.974027 1.41482e-05 0)
200.508       (0.974027 1.41482e-05 0)
200.509       (0.974027 1.41482e-05 0)
200.51        (0.974027 1.41482e-05 0)
200.511       (0.974027 1.41482e-05 0)
200.512       (0.974027 1.41482e-05 0)
200.513       (0.974027 1.41482e-05 0)
200.514       (0.974027 1.41482e-05 0)
200.515       (0.974027 1.41482e-05 0)
200.516       (0.974027 1.41482e-05 0)
200.517       (0.974027 1.41482e-05 0)
200.518       (0.974027 1.41482e-05 0)
200.519       (0.974027 1.41482e-05 0)
200.52        (0.974027 1.41482e-05 0)
200.521       (0.974027 1.41482e-05 0)
200.522       (0.974027 1.41482e-05 0)
200.523       (0.974027 1.41482e-05 0)
200.524       (0.974027 1.41482e-05 0)
200.525       (0.974027 1.41481e-05 0)
200.526       (0.974027 1.41482e-05 0)
200.527       (0.974027 1.41481e-05 0)
200.528       (0.974027 1.41481e-05 0)
200.529       (0.974027 1.41481e-05 0)
200.53        (0.974027 1.41481e-05 0)
200.531       (0.974027 1.41481e-05 0)
200.532       (0.974027 1.41481e-05 0)
200.533       (0.974027 1.41481e-05 0)
200.534       (0.974027 1.41481e-05 0)
200.535       (0.974027 1.41481e-05 0)
200.536       (0.974027 1.41481e-05 0)
200.537       (0.974027 1.41481e-05 0)
200.538       (0.974027 1.41481e-05 0)
200.539       (0.974027 1.41481e-05 0)
200.54        (0.974027 1.41481e-05 0)
200.541       (0.974027 1.41481e-05 0)
200.542       (0.974027 1.41481e-05 0)
200.543       (0.974027 1.41481e-05 0)
200.544       (0.974027 1.41481e-05 0)
200.545       (0.974027 1.41481e-05 0)
200.546       (0.974027 1.41481e-05 0)
200.547       (0.974027 1.41481e-05 0)
200.548       (0.974027 1.41481e-05 0)
200.549       (0.974027 1.41481e-05 0)
200.55        (0.974027 1.41481e-05 0)
200.551       (0.974027 1.41481e-05 0)
200.552       (0.974027 1.41481e-05 0)
200.553       (0.974027 1.41481e-05 0)
200.554       (0.974027 1.41481e-05 0)
200.555       (0.974027 1.41481e-05 0)
200.556       (0.974027 1.41481e-05 0)
200.557       (0.974027 1.41481e-05 0)
200.558       (0.974027 1.41481e-05 0)
200.559       (0.974027 1.41481e-05 0)
200.56        (0.974027 1.41481e-05 0)
200.561       (0.974027 1.41481e-05 0)
200.562       (0.974027 1.41481e-05 0)
200.563       (0.974027 1.41481e-05 0)
200.564       (0.974027 1.41481e-05 0)
200.565       (0.974027 1.41481e-05 0)
200.566       (0.974027 1.41481e-05 0)
200.567       (0.974027 1.41481e-05 0)
200.568       (0.974027 1.41481e-05 0)
200.569       (0.974027 1.41481e-05 0)
200.57        (0.974027 1.41481e-05 0)
200.571       (0.974027 1.41481e-05 0)
200.572       (0.974027 1.41481e-05 0)
200.573       (0.974027 1.41481e-05 0)
200.574       (0.974027 1.41481e-05 0)
200.575       (0.974027 1.41481e-05 0)
200.576       (0.974027 1.41481e-05 0)
200.577       (0.974027 1.41481e-05 0)
200.578       (0.974027 1.41481e-05 0)
200.579       (0.974027 1.41481e-05 0)
200.58        (0.974027 1.41481e-05 0)
200.581       (0.974027 1.41481e-05 0)
200.582       (0.974027 1.41481e-05 0)
200.583       (0.974027 1.41481e-05 0)
200.584       (0.974027 1.41481e-05 0)
200.585       (0.974027 1.41481e-05 0)
200.586       (0.974027 1.41481e-05 0)
200.587       (0.974028 1.41481e-05 0)
200.588       (0.974028 1.41481e-05 0)
200.589       (0.974028 1.41481e-05 0)
200.59        (0.974028 1.41481e-05 0)
200.591       (0.974028 1.41481e-05 0)
200.592       (0.974028 1.41481e-05 0)
200.593       (0.974028 1.41481e-05 0)
200.594       (0.974028 1.41481e-05 0)
200.595       (0.974028 1.41481e-05 0)
200.596       (0.974028 1.41481e-05 0)
200.597       (0.974028 1.41481e-05 0)
200.598       (0.974028 1.41481e-05 0)
200.599       (0.974028 1.41481e-05 0)
200.6         (0.974028 1.41481e-05 0)
200.601       (0.974028 1.41481e-05 0)
200.602       (0.974028 1.41481e-05 0)
200.603       (0.974028 1.41481e-05 0)
200.604       (0.974028 1.41481e-05 0)
200.605       (0.974028 1.4148e-05 0)
200.606       (0.974028 1.41481e-05 0)
200.607       (0.974028 1.4148e-05 0)
200.608       (0.974028 1.41481e-05 0)
200.609       (0.974028 1.4148e-05 0)
200.61        (0.974028 1.4148e-05 0)
200.611       (0.974028 1.4148e-05 0)
200.612       (0.974028 1.41481e-05 0)
200.613       (0.974028 1.4148e-05 0)
200.614       (0.974028 1.4148e-05 0)
200.615       (0.974028 1.4148e-05 0)
200.616       (0.974028 1.4148e-05 0)
200.617       (0.974028 1.4148e-05 0)
200.618       (0.974028 1.4148e-05 0)
200.619       (0.974028 1.4148e-05 0)
200.62        (0.974028 1.4148e-05 0)
200.621       (0.974028 1.4148e-05 0)
200.622       (0.974028 1.4148e-05 0)
200.623       (0.974028 1.4148e-05 0)
200.624       (0.974028 1.4148e-05 0)
200.625       (0.974028 1.4148e-05 0)
200.626       (0.974028 1.4148e-05 0)
200.627       (0.974028 1.4148e-05 0)
200.628       (0.974028 1.4148e-05 0)
200.629       (0.974028 1.4148e-05 0)
200.63        (0.974028 1.4148e-05 0)
200.631       (0.974028 1.4148e-05 0)
200.632       (0.974028 1.4148e-05 0)
200.633       (0.974028 1.4148e-05 0)
200.634       (0.974028 1.4148e-05 0)
200.635       (0.974028 1.4148e-05 0)
200.636       (0.974028 1.4148e-05 0)
200.637       (0.974028 1.4148e-05 0)
200.638       (0.974028 1.4148e-05 0)
200.639       (0.974028 1.4148e-05 0)
200.64        (0.974028 1.4148e-05 0)
200.641       (0.974028 1.4148e-05 0)
200.642       (0.974028 1.4148e-05 0)
200.643       (0.974028 1.4148e-05 0)
200.644       (0.974028 1.4148e-05 0)
200.645       (0.974028 1.4148e-05 0)
200.646       (0.974028 1.4148e-05 0)
200.647       (0.974028 1.4148e-05 0)
200.648       (0.974028 1.4148e-05 0)
200.649       (0.974028 1.4148e-05 0)
200.65        (0.974028 1.4148e-05 0)
200.651       (0.974028 1.4148e-05 0)
200.652       (0.974028 1.4148e-05 0)
200.653       (0.974028 1.4148e-05 0)
200.654       (0.974028 1.4148e-05 0)
200.655       (0.974028 1.4148e-05 0)
200.656       (0.974028 1.4148e-05 0)
200.657       (0.974028 1.4148e-05 0)
200.658       (0.974028 1.4148e-05 0)
200.659       (0.974028 1.4148e-05 0)
200.66        (0.974028 1.4148e-05 0)
200.661       (0.974028 1.4148e-05 0)
200.662       (0.974028 1.4148e-05 0)
200.663       (0.974028 1.4148e-05 0)
200.664       (0.974028 1.4148e-05 0)
200.665       (0.974028 1.4148e-05 0)
200.666       (0.974028 1.4148e-05 0)
200.667       (0.974028 1.4148e-05 0)
200.668       (0.974028 1.4148e-05 0)
200.669       (0.974028 1.4148e-05 0)
200.67        (0.974028 1.4148e-05 0)
200.671       (0.974028 1.4148e-05 0)
200.672       (0.974028 1.4148e-05 0)
200.673       (0.974028 1.4148e-05 0)
200.674       (0.974028 1.4148e-05 0)
200.675       (0.974028 1.4148e-05 0)
200.676       (0.974028 1.4148e-05 0)
200.677       (0.974028 1.4148e-05 0)
200.678       (0.974028 1.4148e-05 0)
200.679       (0.974028 1.4148e-05 0)
200.68        (0.974028 1.4148e-05 0)
200.681       (0.974028 1.4148e-05 0)
200.682       (0.974028 1.4148e-05 0)
200.683       (0.974028 1.4148e-05 0)
200.684       (0.974028 1.4148e-05 0)
200.685       (0.974028 1.4148e-05 0)
200.686       (0.974028 1.4148e-05 0)
200.687       (0.974028 1.4148e-05 0)
200.688       (0.974028 1.4148e-05 0)
200.689       (0.974028 1.4148e-05 0)
200.69        (0.974028 1.4148e-05 0)
200.691       (0.974028 1.4148e-05 0)
200.692       (0.974028 1.4148e-05 0)
200.693       (0.974028 1.4148e-05 0)
200.694       (0.974028 1.4148e-05 0)
200.695       (0.974028 1.41479e-05 0)
200.696       (0.974028 1.4148e-05 0)
200.697       (0.974028 1.41479e-05 0)
200.698       (0.974028 1.4148e-05 0)
200.699       (0.974028 1.41479e-05 0)
200.7         (0.974028 1.41479e-05 0)
200.701       (0.974028 1.41479e-05 0)
200.702       (0.974028 1.41479e-05 0)
200.703       (0.974028 1.41479e-05 0)
200.704       (0.974028 1.41479e-05 0)
200.705       (0.974028 1.41479e-05 0)
200.706       (0.974028 1.41479e-05 0)
200.707       (0.974028 1.41479e-05 0)
200.708       (0.974028 1.41479e-05 0)
200.709       (0.974028 1.41479e-05 0)
200.71        (0.974028 1.41479e-05 0)
200.711       (0.974028 1.41479e-05 0)
200.712       (0.974028 1.41479e-05 0)
200.713       (0.974028 1.41479e-05 0)
200.714       (0.974028 1.41479e-05 0)
200.715       (0.974028 1.41479e-05 0)
200.716       (0.974028 1.41479e-05 0)
200.717       (0.974028 1.41479e-05 0)
200.718       (0.974028 1.41479e-05 0)
200.719       (0.974028 1.41479e-05 0)
200.72        (0.974028 1.41479e-05 0)
200.721       (0.974028 1.41479e-05 0)
200.722       (0.974028 1.41479e-05 0)
200.723       (0.974028 1.41479e-05 0)
200.724       (0.974028 1.41479e-05 0)
200.725       (0.974028 1.41479e-05 0)
200.726       (0.974028 1.41479e-05 0)
200.727       (0.974028 1.41479e-05 0)
200.728       (0.974028 1.41479e-05 0)
200.729       (0.974028 1.41479e-05 0)
200.73        (0.974028 1.41479e-05 0)
200.731       (0.974028 1.41479e-05 0)
200.732       (0.974028 1.41479e-05 0)
200.733       (0.974028 1.41479e-05 0)
200.734       (0.974028 1.41479e-05 0)
200.735       (0.974028 1.41479e-05 0)
200.736       (0.974028 1.41479e-05 0)
200.737       (0.974028 1.41479e-05 0)
200.738       (0.974028 1.41479e-05 0)
200.739       (0.974028 1.41479e-05 0)
200.74        (0.974028 1.41479e-05 0)
200.741       (0.974028 1.41479e-05 0)
200.742       (0.974028 1.41479e-05 0)
200.743       (0.974028 1.41479e-05 0)
200.744       (0.974028 1.41479e-05 0)
200.745       (0.974028 1.41479e-05 0)
200.746       (0.974028 1.41479e-05 0)
200.747       (0.974028 1.41479e-05 0)
200.748       (0.974028 1.41479e-05 0)
200.749       (0.974028 1.41479e-05 0)
200.75        (0.974028 1.41479e-05 0)
200.751       (0.974028 1.41479e-05 0)
200.752       (0.974028 1.41479e-05 0)
200.753       (0.974028 1.41479e-05 0)
200.754       (0.974028 1.41479e-05 0)
200.755       (0.974028 1.41479e-05 0)
200.756       (0.974028 1.41479e-05 0)
200.757       (0.974028 1.41479e-05 0)
200.758       (0.974028 1.41479e-05 0)
200.759       (0.974028 1.41479e-05 0)