/*--------------------------------*- C++ -*----------------------------------*\
| =========                 |                                                 |
| \\      /  F ield         | OpenFOAM: The Open Source CFD Toolbox           |
|  \\    /   O peration     | Version:  2412                                  |
|   \\  /    A nd           | Website:  www.openfoam.com                      |
|    \\/     M anipulation  |                                                 |
\*---------------------------------------------------------------------------*/
FoamFile
{
    version     2.0;
    format      ascii;
    arch        "LSB;label=32;scalar=64";
    class       volVectorField;
    location    "1.99";
    object      U;
}
// * * * * * * * * * * * * * * * * * * * * * * * * * * * * * * * * * * * * * //

dimensions      [0 1 -1 0 0 0 0];

internalField   nonuniform List<vector> 
64350
(
(0.0632503 -2.73964e-19 -0.130039)
(0.0809503 -5.72222e-19 -0.129662)
(0.0897785 1.7317e-19 -0.114424)
(0.0922894 1.76136e-19 -0.0953875)
(0.0911423 1.46097e-19 -0.0782222)
(0.0884822 0 -0.06493)
(0.0848593 4.24502e-20 -0.0543979)
(0.0813056 0 -0.0461642)
(0.0783313 -8.74123e-21 -0.0401913)
(0.0754718 -2.82675e-20 -0.0353995)
(0.0729608 9.77067e-20 -0.0313413)
(0.0712125 3.51624e-20 -0.028522)
(0.0694705 4.04471e-20 -0.025981)
(0.0681297 -8.39907e-20 -0.0237776)
(0.0670527 1.77545e-19 -0.022004)
(0.066237 0 -0.0205201)
(0.065653 5.37992e-20 -0.0193081)
(0.0651237 -2.14031e-19 -0.0181638)
(0.0646793 1.08458e-19 -0.0170568)
(0.0645268 5.55161e-20 -0.0162089)
(0.0642972 -1.16829e-19 -0.0153641)
(0.0642888 5.78324e-20 -0.014625)
(0.0642541 1.82254e-19 -0.0139672)
(0.0642832 2.32886e-21 -0.0133553)
(0.0643234 2.05481e-21 -0.0127845)
(0.0644654 -1.85278e-19 -0.0123008)
(0.064704 0 -0.0119126)
(0.0647395 0 -0.0113527)
(0.0650078 -6.21472e-20 -0.0109717)
(0.0652099 1.26592e-19 -0.0106027)
(0.0652881 1.06585e-21 -0.010115)
(0.0654461 -1.87793e-19 -0.00972101)
(0.0656309 -6.27869e-20 -0.00938006)
(0.0658104 2.19186e-19 -0.00903739)
(0.0660178 -3.1179e-19 -0.00872735)
(0.0660983 -5.49777e-22 -0.00835208)
(0.0663576 1.23616e-19 -0.00809023)
(0.0665027 1.23745e-19 -0.00780264)
(0.0665184 -9.212e-20 -0.00742635)
(0.0667097 1.22319e-19 -0.00718015)
(0.0667505 -1.21438e-19 -0.00688611)
(0.066724 -9.08299e-20 -0.00655062)
(0.0668046 8.99531e-20 -0.00630719)
(0.0668729 2.9736e-20 -0.0060754)
(0.0668295 -1.18644e-19 -0.00579316)
(0.0668351 8.83063e-20 -0.00554889)
(0.0668135 2.91758e-20 -0.00531593)
(0.0666899 5.8063e-20 -0.00504627)
(0.0666195 1.15408e-19 -0.00481789)
(0.0665341 -2.57996e-19 -0.00460327)
(0.0663984 1.13932e-19 -0.00437441)
(0.0661664 -1.4146e-20 -0.00412596)
(0.0659315 2.80124e-20 -0.00389987)
(0.0657694 0 -0.00372063)
(0.0656547 0 -0.00355889)
(0.0654244 0 -0.00335075)
(0.0649936 0 -0.0031015)
(0.064699 -1.08428e-19 -0.00292194)
(0.0644605 1.21417e-19 -0.002772)
(0.0640297 -1.20467e-19 -0.00257647)
(0.0636044 1.06581e-19 -0.00239427)
(0.0632881 -1.31926e-20 -0.00225403)
(0.0628871 0 -0.00209728)
(0.0623397 4.56293e-20 -0.001916)
(0.0617868 -1.57218e-22 -0.00175457)
(0.0612898 6.27901e-21 -0.00162192)
(0.0608374 -4.49595e-20 -0.00150143)
(0.0603133 0 -0.00136832)
(0.0597073 5.06139e-20 -0.00123126)
(0.0591218 -6.30892e-20 -0.00110875)
(0.0585577 -2.50233e-20 -0.000991762)
(0.0579032 2.49792e-20 -0.000868609)
(0.0572015 2.47694e-20 -0.000756043)
(0.0565269 -2.78284e-20 -0.000658674)
(0.055883 -3.06669e-21 -0.000567145)
(0.0552064 -1.52601e-21 -0.00047134)
(0.0544473 6.0701e-21 -0.000377897)
(0.0537464 -5.30745e-21 -0.00028804)
(0.173262 -3.97783e-20 -0.240688)
(0.220854 2.74516e-19 -0.27358)
(0.25877 7.33818e-20 -0.275814)
(0.283177 8.49937e-20 -0.260718)
(0.297435 -1.79871e-19 -0.237343)
(0.304175 -2.22206e-20 -0.213077)
(0.305152 5.68273e-20 -0.189834)
(0.302625 -4.649e-20 -0.168962)
(0.29849 2.11991e-20 -0.151662)
(0.293192 3.76229e-20 -0.136831)
(0.287406 6.44106e-21 -0.123793)
(0.282119 -7.64564e-20 -0.113286)
(0.276763 0 -0.103983)
(0.271828 0 -0.0958568)
(0.267296 -1.49981e-19 -0.0888461)
(0.263221 1.47689e-19 -0.0827455)
(0.259603 0 -0.0774671)
(0.256229 0 -0.0726964)
(0.253034 -1.16626e-19 -0.068256)
(0.250394 -1.23417e-19 -0.0644851)
(0.247829 1.26583e-19 -0.0609491)
(0.245676 0 -0.0577854)
(0.24365 -1.32119e-19 -0.05491)
(0.241791 6.51733e-20 -0.052241)
(0.24002 6.58146e-20 -0.0497332)
(0.238449 0 -0.047447)
(0.237106 -1.35336e-19 -0.0454172)
(0.235586 1.33756e-19 -0.0432941)
(0.234393 1.2055e-21 -0.0414501)
(0.233191 6.86845e-20 -0.039705)
(0.231883 -2.00832e-19 -0.0379162)
(0.230666 9.54178e-22 -0.0362636)
(0.229514 1.34203e-19 -0.0347341)
(0.228406 -6.60971e-20 -0.0332772)
(0.227386 -1.32389e-19 -0.0319248)
(0.226222 -7.02408e-22 -0.0305308)
(0.225312 1.30595e-19 -0.0293186)
(0.224306 -6.48709e-20 -0.0281264)
(0.223135 -1.62203e-19 -0.0268595)
(0.222186 1.28245e-19 -0.0257674)
(0.22107 -1.59719e-19 -0.024662)
(0.219868 9.4785e-20 -0.0235395)
(0.218789 1.25817e-19 -0.0225403)
(0.21773 -3.10994e-20 -0.0215979)
(0.216543 -1.23808e-19 -0.0206278)
(0.215421 0 -0.0197215)
(0.214272 1.21816e-19 -0.0188514)
(0.212994 -1.21155e-19 -0.0179623)
(0.211782 -2.99275e-20 -0.0171373)
(0.21055 2.97061e-20 -0.0163482)
(0.209269 0 -0.0155676)
(0.207854 1.17244e-19 -0.014781)
(0.206427 -2.61755e-19 -0.0140341)
(0.205089 1.15469e-19 -0.0133573)
(0.203832 2.8564e-20 -0.0127237)
(0.202455 0 -0.0120606)
(0.200797 -1.40964e-20 -0.01135)
(0.199298 1.11879e-19 -0.0107269)
(0.197866 -2.79949e-20 -0.0101518)
(0.196185 -9.67595e-20 -0.00952882)
(0.194504 1.36839e-20 -0.00894393)
(0.192965 1.3628e-20 -0.00841657)
(0.191316 5.40249e-20 -0.00787165)
(0.189459 -5.38004e-20 -0.00731013)
(0.187577 -4.66032e-20 -0.0067897)
(0.18576 1.68377e-22 -0.00632037)
(0.18402 4.61793e-20 -0.00587974)
(0.182184 6.53926e-21 -0.00543076)
(0.18024 5.19789e-20 -0.00498825)
(0.178313 6.29559e-21 -0.00457399)
(0.17641 -7.72285e-20 -0.00417329)
(0.174376 2.56339e-20 -0.00377229)
(0.17228 2.85936e-20 -0.00339797)
(0.170209 -2.5382e-20 -0.00305523)
(0.168182 3.15431e-21 -0.00273043)
(0.166109 1.56947e-21 -0.0024061)
(0.163911 3.88713e-21 -0.00209591)
(0.161806 -6.60652e-21 -0.00179599)
(0.255829 3.43942e-19 -0.267497)
(0.302825 6.78992e-19 -0.328697)
(0.351774 -9.01386e-19 -0.359081)
(0.392562 3.12994e-20 -0.364253)
(0.422502 2.03208e-19 -0.352276)
(0.443754 0 -0.331919)
(0.457011 -8.21244e-20 -0.307201)
(0.463883 1.19725e-19 -0.28168)
(0.466347 -8.8763e-21 -0.258145)
(0.465353 4.68942e-21 -0.236517)
(0.462112 -1.76748e-21 -0.216733)
(0.458153 3.33335e-20 -0.199875)
(0.453133 3.31625e-20 -0.18473)
(0.447977 -9.86039e-20 -0.17128)
(0.442807 -4.42461e-20 -0.159394)
(0.437837 -1.40094e-19 -0.148865)
(0.433182 0 -0.139592)
(0.428686 -7.35079e-21 -0.131268)
(0.424288 2.2258e-19 -0.123573)
(0.420463 1.77424e-19 -0.11685)
(0.416622 -5.6197e-20 -0.110606)
(0.413276 4.00194e-21 -0.105033)
(0.410046 -1.22569e-19 -0.0998774)
(0.407057 6.38591e-20 -0.0950855)
(0.404174 -1.70155e-21 -0.0905887)
(0.401533 0 -0.0864237)
(0.399171 -6.38311e-20 -0.0826872)
(0.396583 0 -0.0789597)
(0.394437 6.55637e-20 -0.0755549)
(0.392249 1.96942e-19 -0.0724017)
(0.389972 -1.28601e-19 -0.0692629)
(0.387819 6.54941e-20 -0.066291)
(0.385723 0 -0.0635148)
(0.383676 0 -0.0608761)
(0.38175 -7.73258e-22 -0.0584153)
(0.37964 0 -0.0559574)
(0.377863 0 -0.0537185)
(0.37594 6.35235e-22 -0.0515827)
(0.373854 0 -0.0493881)
(0.372044 0 -0.0473944)
(0.37 -3.07686e-20 -0.04545)
(0.367892 -1.23948e-19 -0.0434952)
(0.365906 1.22732e-19 -0.0416801)
(0.363928 0 -0.0399748)
(0.361804 -3.01891e-20 -0.0382746)
(0.359766 0 -0.0366551)
(0.357681 8.95183e-20 -0.0351086)
(0.355448 -1.18661e-19 -0.033564)
(0.353295 -8.81233e-20 -0.032094)
(0.351092 5.83731e-20 -0.0306895)
(0.348848 0 -0.0293243)
(0.346438 0 -0.0279692)
(0.344011 -1.42498e-19 -0.0266518)
(0.34166 2.8371e-20 -0.0254165)
(0.339397 1.12303e-19 -0.0242632)
(0.337003 0 -0.0231266)
(0.334278 -1.24578e-19 -0.0219297)
(0.331744 1.10114e-19 -0.0208166)
(0.329235 -1.35774e-20 -0.0197643)
(0.326459 0 -0.0186882)
(0.323694 9.41086e-20 -0.0176594)
(0.32104 -1.60529e-19 -0.0166966)
(0.318258 5.32141e-20 -0.0157408)
(0.315265 5.27373e-20 -0.0147838)
(0.312233 1.2936e-20 -0.0138685)
(0.309236 -5.22161e-20 -0.0130103)
(0.306313 -5.17296e-20 -0.0121997)
(0.303274 3.22784e-20 -0.0114016)
(0.300123 -5.11119e-20 -0.0106211)
(0.296973 1.77867e-22 -0.00987639)
(0.293835 7.59471e-20 -0.00915903)
(0.290541 -2.52092e-20 -0.00845443)
(0.287182 -3.13451e-21 -0.00778278)
(0.283827 -2.48656e-20 -0.00715061)
(0.280509 2.48359e-20 -0.00655086)
(0.277132 -3.07877e-21 -0.00596736)
(0.273601 1.5364e-21 -0.00541254)
(0.27019 7.62021e-22 -0.00487893)
(0.326385 -3.60303e-19 -0.252281)
(0.363712 -3.22105e-19 -0.325256)
(0.409572 5.81459e-19 -0.375277)
(0.457515 3.60854e-19 -0.401877)
(0.498773 -7.22341e-19 -0.408638)
(0.531277 0 -0.401951)
(0.556412 0 -0.385681)
(0.574662 -3.7556e-20 -0.364264)
(0.587046 -3.52702e-20 -0.341494)
(0.594207 -4.17287e-20 -0.318547)
(0.597362 -1.85365e-20 -0.296255)
(0.598259 2.71279e-21 -0.276216)
(0.596823 -1.68108e-20 -0.257556)
(0.594279 4.67442e-20 -0.240633)
(0.590953 -6.96638e-20 -0.225334)
(0.587233 1.23077e-19 -0.211524)
(0.58339 -8.35573e-20 -0.199148)
(0.579405 -2.00305e-19 -0.187945)
(0.575275 9.86469e-20 -0.177497)
(0.57157 -1.03426e-19 -0.168272)
(0.567653 -1.13716e-19 -0.159727)
(0.564138 7.09392e-22 -0.151983)
(0.560599 0 -0.144771)
(0.557266 -1.17065e-19 -0.138095)
(0.553989 -6.16879e-20 -0.131827)
(0.55092 0 -0.125979)
(0.54812 6.26629e-20 -0.120659)
(0.545027 0 -0.115437)
(0.542419 0 -0.110631)
(0.539719 6.44425e-20 -0.10613)
(0.536925 6.50692e-20 -0.101739)
(0.534261 -1.87247e-19 -0.0975697)
(0.531628 1.26166e-19 -0.0936307)
(0.52902 1.08411e-21 -0.0898731)
(0.526543 -3.12722e-19 -0.0863539)
(0.523833 6.23688e-20 -0.082878)
(0.521493 0 -0.079664)
(0.518964 6.21071e-20 -0.0765909)
(0.516259 1.84196e-19 -0.0735099)
(0.513862 -6.11864e-20 -0.0706561)
(0.511173 6.10659e-20 -0.067876)
(0.508434 6.00326e-20 -0.0651263)
(0.505805 1.79687e-19 -0.0625273)
(0.503162 2.86845e-22 -0.0600617)
(0.500349 -2.96492e-20 -0.0576308)
(0.497629 0 -0.0553063)
(0.49484 1.16821e-19 -0.0530764)
(0.491882 -1.16113e-19 -0.0508711)
(0.489011 -1.15097e-19 -0.0487611)
(0.486052 2.86242e-20 -0.0467284)
(0.483055 2.55201e-19 -0.0447614)
(0.47987 -2.2537e-19 -0.0428211)
(0.47666 2.51662e-19 -0.0409342)
(0.4735 -1.38878e-19 -0.0391357)
(0.47041 -1.56478e-22 -0.0374344)
(0.467179 0 -0.0357699)
(0.463593 2.72655e-20 -0.0340707)
(0.460209 0 -0.032464)
(0.456806 1.34008e-19 -0.0309278)
(0.453126 -8.00735e-20 -0.0293979)
(0.449456 0 -0.0279144)
(0.445869 -5.24642e-20 -0.02651)
(0.44213 1.04404e-19 -0.0251372)
(0.438171 -5.19339e-20 -0.0237741)
(0.434165 -5.32181e-23 -0.0224539)
(0.430162 5.11489e-20 -0.0211938)
(0.42622 -6.3686e-20 -0.0199957)
(0.422137 -3.78646e-20 -0.0188263)
(0.417932 1.27189e-20 -0.0176855)
(0.413714 5.01113e-20 -0.0165898)
(0.409492 6.20567e-21 -0.0155345)
(0.405088 0 -0.0145023)
(0.400616 0 -0.0135108)
(0.396123 -6.11348e-21 -0.0125657)
(0.39165 0 -0.0116656)
(0.387109 -1.20949e-20 -0.0107947)
(0.382377 1.36027e-20 -0.00996338)
(0.377792 -7.51812e-22 -0.00917173)
(0.386279 -2.08315e-20 -0.222721)
(0.41335 -6.42085e-19 -0.297019)
(0.449766 -7.19951e-20 -0.356631)
(0.493753 -5.2835e-19 -0.398754)
(0.539902 1.0258e-18 -0.422774)
(0.581236 -4.37641e-20 -0.430864)
(0.614684 4.44068e-20 -0.427693)
(0.642452 0 -0.416027)
(0.664648 9.45313e-20 -0.399499)
(0.681191 -2.65688e-20 -0.380035)
(0.692758 0 -0.359221)
(0.700793 2.0834e-20 -0.339147)
(0.70535 -6.93218e-21 -0.3195)
(0.707712 1.67576e-20 -0.301098)
(0.708368 -3.06736e-20 -0.283989)
(0.707845 9.0365e-20 -0.268221)
(0.706564 8.19117e-20 -0.253788)
(0.704663 0 -0.240443)
(0.702223 0 -0.22799)
(0.699859 1.01434e-19 -0.216998)
(0.696993 0 -0.206608)
(0.694329 1.09442e-19 -0.197052)
(0.69145 0 -0.188129)
(0.688629 6.72207e-22 -0.179839)
(0.685744 1.12942e-19 -0.17204)
(0.682955 -3.87533e-21 -0.164726)
(0.680365 1.16353e-19 -0.158011)
(0.677387 5.84461e-20 -0.151466)
(0.674857 -1.79501e-19 -0.14541)
(0.672169 2.42458e-19 -0.139697)
(0.669353 -2.41602e-19 -0.134172)
(0.666636 1.81347e-19 -0.128921)
(0.663907 1.21672e-19 -0.12393)
(0.661158 1.19785e-21 -0.119153)
(0.658525 -2.41451e-19 -0.114661)
(0.655603 1.61098e-22 -0.110246)
(0.653046 1.19606e-19 -0.106129)
(0.650261 -6.08006e-20 -0.10218)
(0.647275 1.17995e-19 -0.098267)
(0.644599 -5.96779e-20 -0.09461)
(0.641586 0 -0.0910435)
(0.638521 -5.90869e-20 -0.08755)
(0.635542 -5.86958e-20 -0.084218)
(0.632523 -1.16264e-19 -0.0810345)
(0.629308 -1.15626e-19 -0.0779101)
(0.626178 1.14521e-19 -0.0749146)
(0.622954 0 -0.0720304)
(0.619538 2.78624e-20 -0.069192)
(0.616206 0 -0.0664687)
(0.612748 0 -0.0638311)
(0.609248 8.31125e-20 -0.0612809)
(0.605539 -1.10204e-19 -0.0587744)
(0.601795 2.72273e-20 -0.056337)
(0.598066 -1.35652e-19 -0.0539931)
(0.594378 8.08542e-20 -0.0517542)
(0.590545 -2.66883e-20 -0.0495708)
(0.586336 2.65402e-20 -0.0473772)
(0.582328 0 -0.0452819)
(0.57827 -2.61762e-20 -0.0432778)
(0.573909 -2.61909e-20 -0.0412881)
(0.569551 7.77639e-20 -0.0393545)
(0.565251 -5.16792e-20 -0.0375083)
(0.560775 -5.12644e-20 -0.0357059)
(0.556067 1.26852e-20 -0.033926)
(0.551303 -6.31861e-20 -0.0321983)
(0.546509 1.43438e-22 -0.0305352)
(0.541757 6.25783e-20 -0.0289445)
(0.536838 4.96296e-20 -0.0273924)
(0.531784 -6.18786e-20 -0.0258798)
(0.526695 0 -0.0244223)
(0.521586 -3.05141e-20 -0.023017)
(0.516268 8.231e-23 -0.0216425)
(0.510875 2.42377e-20 -0.020318)
(0.505435 3.0058e-20 -0.0190474)
(0.499993 -2.69876e-20 -0.0178328)
(0.49447 2.98521e-21 -0.0166574)
(0.488718 -2.96622e-21 -0.0155279)
(0.483128 0 -0.0144584)
(0.43737 -3.07202e-19 -0.191999)
(0.456121 1.29108e-18 -0.261685)
(0.483436 -3.96469e-20 -0.322979)
(0.518881 -6.73098e-20 -0.372757)
(0.560881 -4.27345e-19 -0.408185)
(0.605273 5.00347e-20 -0.430217)
(0.645806 -2.45329e-19 -0.439396)
(0.680079 -6.19224e-20 -0.438303)
(0.709285 -1.04447e-19 -0.431088)
(0.733706 1.55398e-20 -0.418511)
(0.753311 -5.63378e-20 -0.402462)
(0.768894 -3.70647e-21 -0.385229)
(0.780374 3.69264e-21 -0.367111)
(0.788832 3.13127e-20 -0.349276)
(0.794783 0 -0.332067)
(0.798788 -5.88001e-20 -0.315725)
(0.801388 0 -0.300114)
(0.80274 7.70974e-20 -0.285712)
(0.803101 -7.61235e-20 -0.272496)
(0.803123 -8.23017e-20 -0.260395)
(0.80227 0 -0.248708)
(0.801313 9.99857e-20 -0.23791)
(0.799916 -9.89298e-20 -0.227756)
(0.798364 0 -0.218258)
(0.796581 1.04178e-19 -0.209292)
(0.794729 -2.1859e-19 -0.200839)
(0.792946 0 -0.193012)
(0.790678 5.28498e-20 -0.185399)
(0.788743 5.78183e-20 -0.17832)
(0.786576 1.74061e-19 -0.171603)
(0.784221 -1.14436e-19 -0.165128)
(0.781899 0 -0.158965)
(0.779506 5.71677e-20 -0.153086)
(0.777032 0 -0.147441)
(0.774633 -5.73274e-20 -0.142111)
(0.771897 1.755e-19 -0.136884)
(0.769474 9.33775e-22 -0.13198)
(0.766795 -1.16433e-19 -0.12726)
(0.763881 -1.73894e-19 -0.122612)
(0.761245 1.14495e-19 -0.118242)
(0.758245 0 -0.113976)
(0.755174 5.64556e-20 -0.109816)
(0.752152 5.61745e-20 -0.105829)
(0.749064 0 -0.102002)
(0.745755 1.1214e-19 -0.098252)
(0.742506 0 -0.0946483)
(0.739141 0 -0.0911687)
(0.735561 5.48959e-20 -0.0877517)
(0.732048 -1.64688e-19 -0.0844669)
(0.728376 -1.11725e-22 -0.0812742)
(0.724651 1.08182e-19 -0.078185)
(0.720698 -1.3432e-19 -0.0751533)
(0.716693 1.0655e-19 -0.0722051)
(0.712671 2.66541e-20 -0.0693572)
(0.708653 0 -0.0666202)
(0.704484 2.44462e-22 -0.063962)
(0.699926 -1.30324e-19 -0.0612952)
(0.695551 1.29281e-19 -0.0587412)
(0.691099 2.58079e-20 -0.0562864)
(0.686325 -2.54502e-20 -0.053855)
(0.681538 2.54794e-20 -0.0514918)
(0.676781 0 -0.0492232)
(0.671826 0 -0.0470066)
(0.666628 -1.25099e-20 -0.0448228)
(0.661361 0 -0.0427013)
(0.65603 3.69551e-20 -0.0406492)
(0.650718 -6.12916e-20 -0.0386774)
(0.645214 0 -0.0367514)
(0.639559 0 -0.0348732)
(0.633844 -1.20137e-20 -0.0330587)
(0.628088 -2.3941e-20 -0.0313064)
(0.622099 2.38965e-20 -0.0295912)
(0.616021 0 -0.0279342)
(0.60987 0 -0.0263381)
(0.603688 8.81126e-21 -0.0248069)
(0.597413 0 -0.0233239)
(0.590869 2.91351e-21 -0.0218891)
(0.584491 0 -0.0205324)
(0.481368 2.66103e-19 -0.164981)
(0.49399 -5.73136e-19 -0.227753)
(0.513777 0 -0.286155)
(0.541176 0 -0.337777)
(0.575528 -6.01733e-19 -0.379911)
(0.615025 8.71176e-21 -0.410661)
(0.657236 6.73454e-19 -0.42965)
(0.696818 -7.35052e-20 -0.439403)
(0.731902 3.89215e-19 -0.439754)
(0.761812 -9.71895e-20 -0.434531)
(0.787252 6.91521e-20 -0.42538)
(0.809054 1.23844e-20 -0.413201)
(0.826798 1.43296e-20 -0.398855)
(0.841285 -6.13554e-21 -0.383383)
(0.852884 0 -0.367436)
(0.861911 -2.74828e-20 -0.351499)
(0.868831 0 -0.336539)
(0.874146 -6.39981e-20 -0.322726)
(0.877977 1.25327e-19 -0.309345)
(0.880979 8.07699e-20 -0.29656)
(0.88283 -8.54747e-20 -0.284265)
(0.88422 8.44292e-20 -0.272811)
(0.884917 0 -0.261929)
(0.885212 0 -0.25167)
(0.885082 -1.02326e-19 -0.241941)
(0.884687 1.15709e-21 -0.232717)
(0.884194 -3.23789e-21 -0.224104)
(0.883121 9.91451e-20 -0.215726)
(0.882217 0 -0.207894)
(0.880998 -1.09719e-19 -0.200424)
(0.879515 3.26304e-19 -0.193226)
(0.877976 -1.09248e-19 -0.18636)
(0.876296 -5.62249e-20 -0.179792)
(0.874462 5.46162e-20 -0.173466)
(0.872642 -5.55288e-20 -0.167469)
(0.870447 1.10901e-19 -0.161595)
(0.868482 0 -0.156053)
(0.866237 -1.68111e-19 -0.150704)
(0.863724 1.1069e-19 -0.145454)
(0.861429 -5.47157e-20 -0.140493)
(0.858754 -5.46525e-20 -0.135644)
(0.855983 -5.55902e-20 -0.130927)
(0.853214 1.08848e-19 -0.126391)
(0.85035 -5.36093e-20 -0.12202)
(0.847246 -1.09516e-19 -0.117741)
(0.844165 0 -0.11362)
(0.840948 1.07811e-19 -0.10963)
(0.837496 -1.60091e-19 -0.105716)
(0.834083 -1.06424e-19 -0.101946)
(0.830485 0 -0.0982732)
(0.826815 0 -0.0947144)
(0.822905 2.63487e-20 -0.0912234)
(0.818922 7.79275e-20 -0.0878273)
(0.81489 -1.03456e-19 -0.0845375)
(0.810829 2.55365e-20 -0.081362)
(0.806601 2.56966e-20 -0.0782751)
(0.801976 0 -0.0751874)
(0.797511 -2.53825e-20 -0.0722269)
(0.792946 -2.49728e-20 -0.0693684)
(0.788046 1.498e-19 -0.0665396)
(0.783111 -9.93497e-20 -0.0637883)
(0.778174 0 -0.0611366)
(0.773024 2.46221e-20 -0.0585427)
(0.767619 -7.31284e-20 -0.055989)
(0.762129 2.41478e-20 -0.0535058)
(0.756541 1.21127e-20 -0.0510955)
(0.750947 2.3991e-20 -0.0487716)
(0.745138 -1.18871e-20 -0.0464983)
(0.739162 0 -0.0442793)
(0.733098 2.36169e-20 -0.0421295)
(0.72697 -1.17639e-20 -0.0400498)
(0.720587 7.15669e-23 -0.0380117)
(0.714098 2.33293e-20 -0.0360383)
(0.707507 -5.77565e-21 -0.0341312)
(0.700853 -1.15352e-20 -0.0322954)
(0.694093 0 -0.0305157)
(0.687026 -1.43384e-21 -0.028784)
(0.680115 7.10951e-22 -0.027144)
(0.519504 -2.95231e-19 -0.142651)
(0.527824 5.71225e-19 -0.198316)
(0.541832 -6.45678e-19 -0.251874)
(0.562463 7.307e-20 -0.3017)
(0.589823 -8.98443e-21 -0.345605)
(0.622885 5.74906e-20 -0.381527)
(0.659903 -9.24539e-19 -0.408295)
(0.699171 -2.79266e-19 -0.424741)
(0.73732 -5.48112e-20 -0.43355)
(0.772012 0 -0.436161)
(0.802572 1.00606e-19 -0.432205)
(0.829189 -2.43138e-20 -0.42465)
(0.851956 -2.35547e-20 -0.414368)
(0.87121 -2.2734e-20 -0.402323)
(0.887375 -8.56023e-21 -0.389498)
(0.901018 3.22955e-20 -0.37646)
(0.912298 6.43581e-20 -0.363552)
(0.921525 -3.87667e-20 -0.350367)
(0.928997 -6.09794e-20 -0.337153)
(0.935256 0 -0.324562)
(0.940108 0 -0.312324)
(0.94415 8.01565e-20 -0.30073)
(0.947266 5.78749e-21 -0.289601)
(0.949736 -9.05759e-20 -0.279021)
(0.951589 8.81825e-20 -0.268923)
(0.952977 -9.02098e-20 -0.259287)
(0.954083 0 -0.250217)
(0.954528 -1.01379e-19 -0.241381)
(0.954953 0 -0.233072)
(0.954978 1.03242e-19 -0.225109)
(0.95466 -4.12755e-19 -0.217428)
(0.954185 1.03159e-19 -0.210081)
(0.953493 0 -0.203031)
(0.952576 -5.08937e-20 -0.196224)
(0.951596 -1.18366e-21 -0.189744)
(0.950217 0 -0.183402)
(0.948963 -1.07031e-19 -0.177388)
(0.947411 5.14199e-20 -0.171569)
(0.945565 1.06132e-19 -0.165866)
(0.943855 1.40501e-21 -0.160454)
(0.941766 5.38198e-20 -0.155159)
(0.939548 5.23715e-20 -0.150012)
(0.937282 -5.34452e-20 -0.145048)
(0.934893 5.32684e-20 -0.140253)
(0.932251 -1.58381e-19 -0.135559)
(0.929588 1.56171e-19 -0.131027)
(0.926771 0 -0.126632)
(0.923707 1.56242e-19 -0.122321)
(0.920646 1.17878e-21 -0.118161)
(0.917381 -1.53553e-19 -0.1141)
(0.914023 0 -0.110159)
(0.91042 -1.01814e-19 -0.106294)
(0.906721 1.5128e-19 -0.102531)
(0.902942 5.07401e-20 -0.0988766)
(0.899099 -1.25208e-19 -0.0953357)
(0.895082 5.01563e-20 -0.0918841)
(0.890676 -1.98131e-19 -0.0884549)
(0.886386 9.84813e-20 -0.0851575)
(0.881974 2.46294e-20 -0.0819571)
(0.877228 -2.45028e-20 -0.0787922)
(0.872422 9.68083e-20 -0.0757112)
(0.867581 -1.20327e-19 -0.0727317)
(0.862516 4.79042e-20 -0.0698141)
(0.85719 2.39548e-20 -0.0669419)
(0.85176 -2.38224e-20 -0.0641453)
(0.846202 -2.34634e-20 -0.0614236)
(0.840608 5.84446e-20 -0.0587916)
(0.834784 -3.50307e-20 -0.0562136)
(0.828777 1.1562e-20 -0.0536939)
(0.822652 -1.16082e-20 -0.0512463)
(0.816441 1.14288e-20 -0.0488739)
(0.809957 -1.15357e-20 -0.0465463)
(0.803345 0 -0.0442873)
(0.796606 -1.69788e-20 -0.0420979)
(0.789769 2.83256e-20 -0.0399833)
(0.78281 1.12416e-20 -0.0379314)
(0.775515 -1.40278e-20 -0.0359255)
(0.76835 -7.02096e-22 -0.03402)
(0.552765 5.36652e-19 -0.124529)
(0.558131 -5.62279e-19 -0.173761)
(0.567904 6.34049e-19 -0.222064)
(0.583181 4.78291e-19 -0.268439)
(0.604505 5.2902e-19 -0.311314)
(0.631529 0 -0.348791)
(0.663122 4.91849e-19 -0.379685)
(0.697925 4.60479e-20 -0.40299)
(0.733957 3.67094e-19 -0.418441)
(0.769587 2.24743e-19 -0.42605)
(0.803063 -9.87017e-20 -0.427836)
(0.833272 -3.53331e-20 -0.42598)
(0.860088 8.20807e-20 -0.420332)
(0.883531 6.92611e-20 -0.412548)
(0.903739 6.16738e-21 -0.403068)
(0.92113 0 -0.392283)
(0.936196 -4.88251e-20 -0.380533)
(0.949087 1.09571e-20 -0.368469)
(0.959993 7.87238e-22 -0.356329)
(0.96937 0 -0.344491)
(0.977159 0 -0.332747)
(0.983855 0 -0.32145)
(0.989434 0 -0.31049)
(0.994152 -1.53909e-19 -0.299964)
(0.998082 0 -0.289838)
(1.00137 8.86703e-20 -0.280108)
(1.00419 8.47359e-20 -0.270871)
(1.00629 0 -0.261853)
(1.00819 4.49598e-21 -0.253319)
(1.0096 -1.85923e-19 -0.245101)
(1.0106 9.52992e-20 -0.237161)
(1.01133 1.32433e-21 -0.229541)
(1.01178 -3.31872e-21 -0.222205)
(1.01194 2.00809e-19 -0.215106)
(1.01196 -1.02438e-19 -0.208321)
(1.01156 0 -0.201684)
(1.01118 9.94872e-20 -0.195358)
(1.01048 -5.16982e-20 -0.189224)
(1.00948 0 -0.18322)
(1.00852 5.16775e-20 -0.177496)
(1.00719 0 -0.171893)
(1.00571 -1.01772e-19 -0.166447)
(1.00412 1.52084e-19 -0.161181)
(1.00239 -1.01143e-19 -0.156082)
(1.00039 0 -0.151091)
(0.998338 -1.00833e-19 -0.146262)
(0.996112 -1.00795e-19 -0.141571)
(0.993634 1.00038e-19 -0.136969)
(0.991122 5.03983e-20 -0.13252)
(0.988394 1.49753e-19 -0.128172)
(0.985554 -2.47025e-19 -0.123946)
(0.982469 9.84888e-20 -0.1198)
(0.979265 -4.94676e-20 -0.11576)
(0.975957 9.75972e-20 -0.111828)
(0.972553 -4.81451e-20 -0.108009)
(0.968974 4.87223e-20 -0.104281)
(0.965024 0 -0.100595)
(0.961137 0 -0.0970311)
(0.957112 2.36417e-20 -0.0935576)
(0.952765 9.48456e-20 -0.0901279)
(0.948334 -6.77039e-23 -0.0867858)
(0.943835 -7.02921e-20 -0.0835446)
(0.939109 -2.35e-20 -0.0803678)
(0.934119 0 -0.07724)
(0.929008 -2.29799e-20 -0.0741903)
(0.923745 2.53035e-23 -0.0712155)
(0.918416 2.28328e-20 -0.0683309)
(0.912847 -2.26748e-20 -0.0655022)
(0.907082 -1.22003e-22 -0.0627339)
(0.901174 1.12364e-20 -0.0600381)
(0.895155 1.12813e-20 -0.0574197)
(0.888853 -4.49099e-20 -0.0548479)
(0.882402 2.23473e-20 -0.0523463)
(0.8758 0 -0.0499156)
(0.869066 0 -0.04756)
(0.862195 5.5213e-21 -0.0452715)
(0.854965 -5.51018e-21 -0.0430265)
(0.847832 0 -0.0408856)
(0.58196 -2.59493e-19 -0.109803)
(0.585309 -5.19325e-19 -0.153498)
(0.592049 0 -0.196857)
(0.603254 -5.39792e-19 -0.239309)
(0.619656 5.18693e-19 -0.279786)
(0.641364 -5.54519e-19 -0.316702)
(0.667752 5.21691e-19 -0.348968)
(0.697981 9.62893e-20 -0.37544)
(0.730643 -4.42195e-19 -0.395409)
(0.7641 -2.14681e-19 -0.409073)
(0.796944 2.03217e-19 -0.417044)
(0.828204 0 -0.419895)
(0.85709 3.1745e-20 -0.41846)
(0.883335 -7.48125e-20 -0.413982)
(0.906798 3.99344e-20 -0.407028)
(0.927508 -2.92118e-21 -0.398461)
(0.945714 -2.4567e-21 -0.38882)
(0.961623 -8.31599e-22 -0.378552)
(0.97545 -8.83505e-21 -0.367815)
(0.987558 -4.29686e-20 -0.357025)
(0.997975 -8.84201e-21 -0.346123)
(1.00709 1.58956e-19 -0.335462)
(1.01495 -5.79402e-20 -0.32498)
(1.02178 8.75557e-21 -0.314793)
(1.02769 -6.80122e-20 -0.304906)
(1.03281 7.25163e-20 -0.295332)
(1.0373 -1.65237e-19 -0.286162)
(1.04103 1.65899e-19 -0.277185)
(1.04438 4.76458e-21 -0.26863)
(1.04719 9.07781e-20 -0.260355)
(1.04951 -1.83679e-19 -0.252341)
(1.05149 1.8406e-19 -0.244622)
(1.05311 -2.79227e-19 -0.237168)
(1.05438 1.87702e-19 -0.229939)
(1.05544 -1.86456e-19 -0.223001)
(1.05608 0 -0.216216)
(1.05663 -1.16699e-21 -0.20972)
(1.05686 -9.59805e-20 -0.20341)
(1.05677 -9.75699e-20 -0.197237)
(1.05664 9.6604e-20 -0.191327)
(1.05616 0 -0.18554)
(1.05549 4.94426e-20 -0.179913)
(1.05468 -4.93846e-20 -0.174461)
(1.0537 4.79574e-20 -0.16917)
(1.05246 0 -0.163992)
(1.05112 1.46397e-19 -0.158972)
(1.0496 -4.72768e-20 -0.154088)
(1.04783 -9.63461e-20 -0.149298)
(1.04599 1.44012e-19 -0.144657)
(1.04393 -1.44511e-19 -0.140117)
(1.04174 1.43824e-19 -0.135698)
(1.03931 0 -0.131364)
(1.03675 0 -0.127135)
(1.03407 -9.19059e-22 -0.123014)
(1.03126 4.74877e-20 -0.119)
(1.02828 0 -0.115082)
(1.02496 -9.34599e-20 -0.111207)
(1.02164 4.68648e-20 -0.107448)
(1.01818 -6.92063e-20 -0.103786)
(1.01442 2.28534e-20 -0.100171)
(1.01055 0 -0.0966418)
(1.00659 2.26461e-20 -0.0932097)
(1.0024 0 -0.0898431)
(0.997954 -4.52386e-20 -0.0865276)
(0.993372 6.77569e-20 -0.0832903)
(0.988621 2.22608e-20 -0.0801262)
(0.983777 -4.47069e-20 -0.0770504)
(0.978689 2.23779e-20 -0.074031)
(0.973398 -5.53989e-20 -0.0710726)
(0.967944 4.40226e-20 -0.0681851)
(0.962358 2.20675e-20 -0.0653747)
(0.956486 -2.20244e-20 -0.0626115)
(0.950447 1.09371e-20 -0.0599178)
(0.944236 -2.17515e-20 -0.0572943)
(0.937865 1.0807e-20 -0.054744)
(0.931342 -5.38066e-21 -0.0522629)
(0.924449 -2.54679e-23 -0.0498221)
(0.917612 -1.33782e-21 -0.0474852)
(0.607758 -1.51671e-20 -0.097729)
(0.609723 1.66625e-20 -0.136739)
(0.614305 -5.07212e-19 -0.175705)
(0.622485 4.47651e-19 -0.214328)
(0.63503 -9.48582e-19 -0.251904)
(0.652291 4.18725e-22 -0.287171)
(0.674008 -4.53554e-19 -0.31921)
(0.699726 -5.23476e-19 -0.346965)
(0.728467 9.94186e-20 -0.369569)
(0.758995 -3.37192e-19 -0.386748)
(0.790149 -1.31085e-19 -0.398552)
(0.820806 -1.71458e-19 -0.405405)
(0.850049 5.07884e-20 -0.407973)
(0.877392 -7.51924e-20 -0.407128)
(0.90248 -9.40079e-20 -0.403459)
(0.925178 3.6231e-20 -0.3977)
(0.945557 5.25174e-21 -0.390388)
(0.963724 4.77549e-21 -0.382009)
(0.979839 2.9287e-20 -0.372846)
(0.994153 1.979e-20 -0.36334)
(1.00674 9.95241e-21 -0.353512)
(1.0179 -1.96433e-21 -0.3437)
(1.02772 -9.28591e-22 -0.333902)
(1.0364 1.14481e-19 -0.324255)
(1.04405 6.68764e-20 -0.314795)
(1.0508 -7.13159e-20 -0.305557)
(1.05681 0 -0.296625)
(1.06202 0 -0.287849)
(1.06671 0 -0.279427)
(1.0708 0 -0.271243)
(1.07436 -8.43744e-20 -0.263294)
(1.0775 8.34403e-20 -0.25561)
(1.08023 1.29419e-21 -0.248165)
(1.08256 8.67113e-20 -0.240929)
(1.08462 9.11772e-20 -0.233958)
(1.08625 -9.09241e-20 -0.227141)
(1.08772 1.20491e-21 -0.220587)
(1.08885 -2.64369e-21 -0.21421)
(1.08966 2.74125e-19 -0.207975)
(1.09036 -1.82322e-19 -0.201981)
(1.09072 0 -0.196112)
(1.09087 0 -0.190401)
(1.09086 9.3447e-20 -0.184857)
(1.09065 -9.22939e-20 -0.179469)
(1.09019 -1.38626e-19 -0.174195)
(1.08959 0 -0.169073)
(1.08881 1.27573e-21 -0.164084)
(1.08779 0 -0.159192)
(1.08667 -4.68947e-20 -0.154443)
(1.08533 4.58678e-20 -0.149795)
(1.08385 -1.37582e-19 -0.145264)
(1.08215 0 -0.140821)
(1.08029 0 -0.136481)
(1.07831 1.34624e-22 -0.132247)
(1.07618 -4.5895e-20 -0.128115)
(1.07389 -4.49039e-20 -0.124077)
(1.07128 -4.57454e-20 -0.120081)
(1.06865 1.35467e-19 -0.116204)
(1.06586 4.52727e-20 -0.112427)
(1.06279 6.69042e-20 -0.108698)
(1.0596 2.48316e-23 -0.10505)
(1.0563 -1.11022e-19 -0.101494)
(1.05278 0 -0.0980041)
(1.04902 0 -0.0945662)
(1.04511 0 -0.0912048)
(1.04102 -2.19783e-20 -0.087914)
(1.03682 4.35147e-20 -0.0847079)
(1.03238 4.33018e-20 -0.0815577)
(1.02773 -4.31931e-20 -0.0784679)
(1.02291 -1.08176e-20 -0.0754461)
(1.01794 -2.12624e-20 -0.0724991)
(1.01269 -1.06959e-20 -0.0695992)
(1.00726 3.20003e-20 -0.0667664)
(1.00165 1.05394e-20 -0.0640018)
(0.995847 0 -0.0613064)
(0.989885 1.57581e-20 -0.0586802)
(0.983553 -1.05428e-20 -0.0560913)
(0.977237 1.32171e-21 -0.0536022)
(0.630704 0 -0.0877201)
(0.631714 4.87353e-19 -0.122773)
(0.634757 5.59944e-19 -0.157921)
(0.640706 -7.46279e-20 -0.193036)
(0.650292 4.95081e-19 -0.227662)
(0.66397 3.63113e-21 -0.26082)
(0.681704 0 -0.291782)
(0.703309 -7.05268e-21 -0.319617)
(0.728165 9.03967e-20 -0.343394)
(0.755354 2.40545e-19 -0.362671)
(0.783934 0 -0.377318)
(0.812883 -1.99933e-19 -0.387408)
(0.841305 2.74677e-19 -0.393314)
(0.868578 3.81499e-20 -0.395662)
(0.894212 8.92685e-20 -0.394952)
(0.917922 -3.55907e-20 -0.391805)
(0.939622 3.25696e-20 -0.386762)
(0.959295 -3.32204e-23 -0.380336)
(0.977035 -1.27635e-20 -0.37286)
(0.99299 -1.94502e-20 -0.364756)
(1.00725 7.96571e-22 -0.356118)
(1.02003 5.50394e-20 -0.347281)
(1.03143 -8.20523e-20 -0.338295)
(1.04162 -5.19214e-20 -0.329316)
(1.05072 5.64108e-20 -0.320406)
(1.05886 -1.10603e-19 -0.311621)
(1.06616 0 -0.303044)
(1.07263 6.91961e-20 -0.294577)
(1.07849 -6.83944e-20 -0.286393)
(1.0837 0 -0.278401)
(1.08834 7.75811e-20 -0.270614)
(1.0925 -1.18791e-21 -0.263056)
(1.09621 0 -0.25571)
(1.09949 8.29055e-20 -0.248555)
(1.10244 -1.62952e-19 -0.241636)
(1.10497 0 -0.234868)
(1.10726 1.18986e-21 -0.228337)
(1.10922 -2.75446e-21 -0.221973)
(1.11085 -1.76528e-19 -0.215751)
(1.11231 1.76111e-19 -0.209749)
(1.11345 8.63529e-20 -0.203871)
(1.11437 0 -0.198149)
(1.11509 -8.70788e-20 -0.192584)
(1.11561 4.51746e-20 -0.187167)
(1.11588 4.52167e-20 -0.181867)
(1.116 8.94075e-20 -0.176712)
(1.11593 -4.35594e-20 -0.171684)
(1.11563 -4.38973e-20 -0.166756)
(1.11521 8.92325e-20 -0.161965)
(1.11458 -4.47893e-20 -0.157272)
(1.1138 -4.40236e-20 -0.152695)
(1.11281 4.46527e-20 -0.148206)
(1.11167 0 -0.143818)
(1.11039 4.45781e-20 -0.139533)
(1.10896 -4.44329e-20 -0.135344)
(1.10737 8.76683e-20 -0.131248)
(1.1055 -1.75032e-19 -0.127202)