/*--------------------------------*- C++ -*----------------------------------*\
| =========                 |                                                 |
| \\      /  F ield         | OpenFOAM: The Open Source CFD Toolbox           |
|  \\    /   O peration     | Version:  2406                                  |
|   \\  /    A nd           | Website:  www.openfoam.com                      |
|    \\/     M anipulation  |                                                 |
\*---------------------------------------------------------------------------*/
FoamFile
{
    version     2.0;
    format      ascii;
    arch        "LSB;label=32;scalar=64";
    class       volScalarField;
    location    "7";
    object      p;
}
// * * * * * * * * * * * * * * * * * * * * * * * * * * * * * * * * * * * * * //

dimensions      [0 2 -2 0 0 0 0];

internalField   nonuniform List<scalar> 
40000
(
1.66406e-07
-6.23503e-06
-1.23738e-05
-1.80675e-05
-2.36997e-05
-2.93612e-05
-3.5034e-05
-4.07123e-05
-4.6406e-05
-5.21276e-05
-5.78904e-05
-6.37094e-05
-6.96013e-05
-7.55848e-05
-8.16804e-05
-8.79107e-05
-9.42999e-05
-0.000100874
-0.000107661
-0.000114691
-0.000121995
-0.000129606
-0.000137559
-0.00014589
-0.000154639
-0.000163844
-0.000173548
-0.000183794
-0.000194627
-0.000206093
-0.000218241
-0.000231121
-0.000244786
-0.00025929
-0.00027469
-0.000291044
-0.000308414
-0.000326865
-0.000346463
-0.00036728
-0.000389388
-0.000412868
-0.0004378
-0.000464273
-0.000492381
-0.000522221
-0.0005539
-0.000587532
-0.000623238
-0.00066115
-0.000701409
-0.000744169
-0.000789595
-0.000837869
-0.000889189
-0.000943769
-0.00100185
-0.00106368
-0.00112957
-0.00119982
-0.00127478
-0.00135486
-0.00144051
-0.00153221
-0.00163054
-0.00173615
-0.00184978
-0.0019723
-0.00210472
-0.00224822
-0.00240421
-0.00257435
-0.00276065
-0.00296553
-0.00319191
-0.00344335
-0.00372416
-0.00403962
-0.0043961
-0.00480131
-0.00526451
-0.00579674
-0.00641094
-0.0071221
-0.00794725
-0.00890519
-0.0100161
-0.0113008
-0.0127795
-0.0144705
-0.0163884
-0.0185423
-0.0209337
-0.0235554
-0.0263899
-0.0294096
-0.0325774
-0.0358485
-0.0391726
-0.0424971
-0.000292822
-0.000298798
-0.000304517
-0.000309839
-0.000315129
-0.00032047
-0.000325845
-0.00033125
-0.000336696
-0.000342197
-0.000347766
-0.00035342
-0.000359178
-0.000365057
-0.000371082
-0.000377275
-0.000383663
-0.000390272
-0.000397132
-0.000404275
-0.000411733
-0.000419542
-0.000427738
-0.00043636
-0.000445448
-0.000455043
-0.000465191
-0.000475936
-0.000487326
-0.00049941
-0.00051224
-0.000525868
-0.000540351
-0.000555745
-0.000572111
-0.000589512
-0.000608013
-0.000627683
-0.000648592
-0.000670818
-0.00069444
-0.00071954
-0.000746209
-0.000774541
-0.000804636
-0.0008366
-0.00087055
-0.000906607
-0.000944903
-0.000985582
-0.0010288
-0.00107471
-0.00112351
-0.0011754
-0.00123058
-0.00128929
-0.00135179
-0.00141837
-0.00148935
-0.00156506
-0.00164591
-0.00173232
-0.00182478
-0.00192385
-0.00203015
-0.00214439
-0.0022674
-0.00240012
-0.00254368
-0.00269936
-0.00286871
-0.00305356
-0.00325612
-0.00347902
-0.00372548
-0.00399936
-0.00430539
-0.00464926
-0.00503791
-0.00547966
-0.00598449
-0.00656422
-0.00723266
-0.00800571
-0.00890128
-0.009939
-0.0111397
-0.0125245
-0.0141135
-0.0159246
-0.0179709
-0.0202597
-0.0227899
-0.0255509
-0.028522
-0.0316718
-0.0349603
-0.0383399
-0.0417589
-0.0451642
-0.000583007
-0.000588522
-0.000593819
-0.00059877
-0.000603714
-0.000608728
-0.000613798
-0.000618922
-0.000624112
-0.000629384
-0.00063475
-0.000640231
-0.000645843
-0.000651609
-0.000657551
-0.000663694
-0.000670067
-0.000676696
-0.000683614
-0.000690853
-0.000698448
-0.000706436
-0.000714854
-0.000723743
-0.000733146
-0.000743105
-0.000753668
-0.000764882
-0.000776797
-0.000789464
-0.000802938
-0.000817275
-0.000832533
-0.000848773
-0.000866058
-0.000884455
-0.000904033
-0.000924866
-0.000947028
-0.000970602
-0.000995671
-0.00102232
-0.00105066
-0.00108077
-0.00111278
-0.00114678
-0.00118292
-0.00122131
-0.0012621
-0.00130545
-0.00135151
-0.00140048
-0.00145254
-0.00150791
-0.00156683
-0.00162954
-0.00169633
-0.00176751
-0.00184343
-0.00192445
-0.002011
-0.00210356
-0.00220266
-0.00230889
-0.00242294
-0.00254559
-0.00267772
-0.00282038
-0.00297477
-0.00314231
-0.00332467
-0.00352384
-0.0037422
-0.00398263
-0.00424857
-0.00454421
-0.00487462
-0.00524595
-0.00566559
-0.00614245
-0.00668714
-0.00731219
-0.00803218
-0.00886377
-0.00982562
-0.010938
-0.0122222
-0.0136996
-0.01539
-0.0173104
-0.0194729
-0.0218826
-0.0245361
-0.0274199
-0.0305102
-0.0337729
-0.037165
-0.0406374
-0.0441375
-0.0476123
-0.000869737
-0.000874794
-0.00087967
-0.000884252
-0.000888851
-0.000893538
-0.000898302
-0.000903144
-0.000908077
-0.000913114
-0.000918274
-0.000923574
-0.000929035
-0.000934678
-0.000940528
-0.000946611
-0.000952956
-0.000959592
-0.000966552
-0.000973869
-0.000981581
-0.000989725
-0.000998341
-0.00100747
-0.00101716
-0.00102745
-0.0010384
-0.00105004
-0.00106244
-0.00107565
-0.00108972
-0.00110472
-0.0011207
-0.00113773
-0.00115588
-0.00117521
-0.0011958
-0.00121773
-0.00124107
-0.00126591
-0.00129235
-0.00132047
-0.00135038
-0.00138218
-0.001416
-0.00145194
-0.00149015
-0.00153076
-0.00157392
-0.00161981
-0.0016686
-0.00172047
-0.00177565
-0.00183436
-0.00189684
-0.00196339
-0.00203428
-0.00210987
-0.00219052
-0.00227664
-0.00236867
-0.00246714
-0.00257261
-0.00268574
-0.00280724
-0.00293797
-0.00307889
-0.00323111
-0.00339592
-0.00357487
-0.00376973
-0.00398265
-0.00421619
-0.00447341
-0.004758
-0.00507444
-0.00542812
-0.00582555
-0.0062746
-0.00678466
-0.00736691
-0.00803448
-0.0088026
-0.0096886
-0.0107117
-0.0118927
-0.0132532
-0.0148146
-0.0165963
-0.0186146
-0.0208802
-0.0233966
-0.026158
-0.0291485
-0.0323417
-0.035701
-0.0391818
-0.0427336
-0.0463034
-0.0498389
-0.0011525
-0.0011571
-0.00116156
-0.00116578
-0.00117003
-0.0011744
-0.00117885
-0.00118341
-0.00118808
-0.00119289
-0.00119783
-0.00120295
-0.00120825
-0.00121376
-0.00121951
-0.00122552
-0.00123183
-0.00123845
-0.00124544
-0.00125281
-0.00126062
-0.0012689
-0.00127768
-0.00128703
-0.00129697
-0.00130756
-0.00131885
-0.00133088
-0.00134372
-0.00135743
-0.00137205
-0.00138765
-0.00140429
-0.00142205
-0.00144099
-0.00146118
-0.00148271
-0.00150565
-0.00153008
-0.00155611
-0.00158381
-0.0016133
-0.00164468
-0.00167805
-0.00171356
-0.00175131
-0.00179146
-0.00183415
-0.00187955
-0.00192782
-0.00197917
-0.00203378
-0.00209189
-0.00215375
-0.00221961
-0.00228977
-0.00236455
-0.00244432
-0.00252945
-0.0026204
-0.00271763
-0.00282171
-0.00293323
-0.0030529
-0.00318149
-0.00331991
-0.00346917
-0.00363047
-0.00380519
-0.00399497
-0.0042017
-0.00442766
-0.00467557
-0.00494868
-0.00525088
-0.00558691
-0.00596245
-0.00638435
-0.00686085
-0.00740179
-0.00801882
-0.00872559
-0.00953786
-0.0104735
-0.0115521
-0.012795
-0.0142238
-0.0158598
-0.0177222
-0.0198264
-0.0221819
-0.0247906
-0.0276448
-0.0307266
-0.0340073
-0.0374488
-0.0410049
-0.0446245
-0.0482546
-0.0518439
-0.00143083
-0.00143499
-0.00143903
-0.00144289
-0.0014468
-0.00145084
-0.001455
-0.00145927
-0.00146368
-0.00146825
-0.00147298
-0.00147791
-0.00148305
-0.00148842
-0.00149406
-0.00149998
-0.00150623
-0.00151284
-0.00151983
-0.00152724
-0.00153512
-0.0015435
-0.00155243
-0.00156195
-0.00157211
-0.00158296
-0.00159455
-0.00160693
-0.00162016
-0.0016343
-0.00164941
-0.00166555
-0.0016828
-0.00170121
-0.00172086
-0.00174184
-0.00176421
-0.00178807
-0.0018135
-0.00184059
-0.00186946
-0.0019002
-0.00193292
-0.00196774
-0.0020048
-0.00204422
-0.00208616
-0.00213077
-0.00217823
-0.00222871
-0.00228242
-0.00233958
-0.00240042
-0.0024652
-0.0025342
-0.00260774
-0.00268615
-0.00276981
-0.00285914
-0.0029546
-0.00305671
-0.00316604
-0.00328324
-0.00340904
-0.00354428
-0.0036899
-0.00384699
-0.00401682
-0.00420083
-0.00440075
-0.0046186
-0.00485676
-0.00511809
-0.00540601
-0.0057246
-0.00607881
-0.00647456
-0.00691902
-0.00742072
-0.00798988
-0.00863854
-0.00938077
-0.0102327
-0.0112127
-0.0123407
-0.0136381
-0.0151267
-0.0168277
-0.0187598
-0.0209377
-0.0233698
-0.0260566
-0.028989
-0.0321474
-0.0355015
-0.0390118
-0.0426314
-0.0463088
-0.0499914
-0.0536287
-0.00170432
-0.00170803
-0.00171168
-0.00171518
-0.00171876
-0.00172248
-0.00172633
-0.00173033
-0.00173449
-0.00173881
-0.00174333
-0.00174806
-0.00175303
-0.00175826
-0.00176378
-0.00176961
-0.00177579
-0.00178235
-0.00178933
-0.00179676
-0.00180469
-0.00181315
-0.00182219
-0.00183186
-0.0018422
-0.00185326
-0.0018651
-0.00187778
-0.00189134
-0.00190586
-0.00192139
-0.001938
-0.00195577
-0.00197475
-0.00199504
-0.0020167
-0.00203982
-0.0020645
-0.00209081
-0.00211887
-0.00214877
-0.00218062
-0.00221455
-0.00225067
-0.00228913
-0.00233006
-0.00237362
-0.00241997
-0.00246929
-0.00252179
-0.00257766
-0.00263714
-0.00270047
-0.00276793
-0.00283981
-0.00291644
-0.00299819
-0.00308543
-0.00317863
-0.00327825
-0.00338485
-0.00349903
-0.00362148
-0.00375296
-0.00389434
-0.00404663
-0.00421097
-0.00438867
-0.00458128
-0.00479058
-0.00501868
-0.00526809
-0.00554177
-0.00584328
-0.00617688
-0.00654768
-0.00696183
-0.0074267
-0.00795113
-0.00854559
-0.00922244
-0.00999607
-0.010883
-0.0119016
-0.0130724
-0.0144167
-0.0159564
-0.0177124
-0.019703
-0.0219424
-0.024438
-0.0271893
-0.0301859
-0.033407
-0.0368213
-0.0403884
-0.0440608
-0.0477872
-0.0515154
-0.0551958
-0.00197259
-0.00197588
-0.00197914
-0.00198229
-0.00198555
-0.00198896
-0.00199252
-0.00199625
-0.00200015
-0.00200424
-0.00200854
-0.00201308
-0.00201788
-0.00202295
-0.00202834
-0.00203407
-0.00204017
-0.00204667
-0.00205362
-0.00206105
-0.00206899
-0.0020775
-0.00208662
-0.00209639
-0.00210687
-0.0021181
-0.00213015
-0.00214306
-0.0021569
-0.00217173
-0.00218762
-0.00220463
-0.00222283
-0.0022423
-0.00226312
-0.00228537
-0.00230914
-0.00233451
-0.00236159
-0.00239048
-0.00242128
-0.00245411
-0.00248909
-0.00252635
-0.00256604
-0.00260829
-0.00265328
-0.00270118
-0.00275217
-0.00280645
-0.00286425
-0.0029258
-0.00299137
-0.00306123
-0.0031357
-0.00321513
-0.00329988
-0.00339037
-0.00348707
-0.00359047
-0.00370115
-0.00381974
-0.00394695
-0.0040836
-0.00423058
-0.00438895
-0.00455988
-0.00474477
-0.00494519
-0.00516302
-0.00540044
-0.00566005
-0.00594491
-0.00625869
-0.00660579
-0.00699147
-0.00742203
-0.00790505
-0.00844953
-0.00906619
-0.0097676
-0.0105684
-0.0114852
-0.0125367
-0.0137435
-0.0151269
-0.0167088
-0.0185098
-0.020548
-0.0228368
-0.0253832
-0.0281857
-0.0312333
-0.0345041
-0.0379662
-0.0415789
-0.0452945
-0.0490618
-0.0528293
-0.0565484
-0.00223536
-0.00223825
-0.00224112
-0.00224395
-0.00224689
-0.00225
-0.00225328
-0.00225674
-0.00226039
-0.00226425
-0.00226834
-0.00227268
-0.0022773
-0.00228222
-0.00228748
-0.00229309
-0.00229909
-0.00230553
-0.00231242
-0.00231982
-0.00232776
-0.00233629
-0.00234545
-0.00235529
-0.00236586
-0.00237721
-0.00238941
-0.0024025
-0.00241655
-0.00243162
-0.00244779
-0.00246511
-0.00248366
-0.00250353
-0.00252478
-0.00254751
-0.0025718
-0.00259776
-0.00262547
-0.00265505
-0.0026866
-0.00272025
-0.00275612
-0.00279435
-0.00283509
-0.00287848
-0.0029247
-0.00297392
-0.00302635
-0.00308218
-0.00314166
-0.00320502
-0.00327254
-0.00334451
-0.00342127
-0.00350316
-0.00359057
-0.00368393
-0.00378373
-0.00389049
-0.00400481
-0.00412733
-0.00425881
-0.00440007
-0.00455206
-0.00471586
-0.00489271
-0.00508401
-0.00529143
-0.00551688
-0.00576262
-0.00603131
-0.0063261
-0.00665076
-0.00700977
-0.00740851
-0.00785341
-0.00835218
-0.00891396
-0.0095496
-0.0102718
-0.0110953
-0.012037
-0.0131156
-0.0143515
-0.0157662
-0.0173815
-0.0192177
-0.0212926
-0.0236192
-0.0262041
-0.0290452
-0.032131
-0.0354392
-0.0389377
-0.0425855
-0.0463352
-0.0501361
-0.0539372
-0.0576904
-0.00249238
-0.00249487
-0.00249739
-0.00249989
-0.00250254
-0.00250536
-0.00250837
-0.00251157
-0.00251497
-0.00251861
-0.00252249
-0.00252664
-0.00253108
-0.00253584
-0.00254095
-0.00254644
-0.00255234
-0.00255868
-0.00256551
-0.00257285
-0.00258076
-0.00258927
-0.00259844
-0.00260831
-0.00261893
-0.00263035
-0.00264264
-0.00265585
-0.00267004
-0.00268529
-0.00270165
-0.0027192
-0.00273801
-0.00275816
-0.00277975
-0.00280284
-0.00282754
-0.00285394
-0.00288215
-0.00291227
-0.00294442
-0.00297873
-0.00301532
-0.00305433
-0.00309592
-0.00314024
-0.00318747
-0.00323779
-0.00329141
-0.00334855
-0.00340943
-0.00347432
-0.0035435
-0.00361728
-0.00369598
-0.00377998
-0.00386968
-0.00396553
-0.00406802
-0.0041777
-0.00429517
-0.00442113
-0.00455632
-0.00470163
-0.004858
-0.00502657
-0.00520859
-0.00540553
-0.00561907
-0.0058512
-0.0061042
-0.00638081
-0.00668423
-0.0070183
-0.00738758
-0.00779753
-0.00825464
-0.00876671
-0.00934296
-0.00999431
-0.0107336
-0.0115755
-0.0125369
-0.0136366
-0.014895
-0.0163334
-0.0179734
-0.0198352
-0.0219363
-0.0242896
-0.0269011
-0.0297688
-0.0328808
-0.0362148
-0.0397388
-0.0434119
-0.0471873
-0.0510146
-0.0548434
-0.0586264
-0.00274344
-0.00274557
-0.00274775
-0.00274995
-0.00275231
-0.00275486
-0.00275761
-0.00276056
-0.00276373
-0.00276714
-0.00277082
-0.00277478
-0.00277904
-0.00278364
-0.0027886
-0.00279396
-0.00279974
-0.00280597
-0.00281271
-0.00281998
-0.00282782
-0.00283629
-0.00284543
-0.00285528
-0.0028659
-0.00287734
-0.00288967
-0.00290293
-0.0029172
-0.00293253
-0.00294901
-0.00296669
-0.00298566
-0.00300601
-0.0030278
-0.00305114
-0.00307612
-0.00310283
-0.00313139
-0.0031619
-0.00319449
-0.00322927
-0.0032664
-0.003306
-0.00334823
-0.00339327
-0.00344128
-0.00349247
-0.00354703
-0.0036052
-0.00366721
-0.00373334
-0.00380387
-0.00387911
-0.00395942
-0.00404517
-0.00413677
-0.00423469
-0.00433944
-0.00445157
-0.00457172
-0.00470058
-0.00483894
-0.00498767
-0.00514779
-0.00532043
-0.00550688
-0.00570863
-0.00592741
-0.00616522
-0.00642442
-0.00670775
-0.00701848
-0.00736049
-0.00773837
-0.00815762
-0.0086248
-0.00914771
-0.00973562
-0.0103995
-0.011152
-0.012008
-0.0129842
-0.0140993
-0.0153735
-0.0168282
-0.0184847
-0.0203629
-0.0224803
-0.0248494
-0.0274765
-0.0303593
-0.033486
-0.0368348
-0.0403739
-0.0440631
-0.0478559
-0.0517026
-0.0555534
-0.0593615
-0.0029884
-0.00299018
-0.00299205
-0.00299397
-0.00299606
-0.00299835
-0.00300085
-0.00300357
-0.00300652
-0.00300972
-0.0030132
-0.00301697
-0.00302106
-0.00302549
-0.0030303
-0.00303551
-0.00304116
-0.00304728
-0.0030539
-0.00306107
-0.00306883
-0.00307722
-0.00308628
-0.00309608
-0.00310665
-0.00311806
-0.00313036
-0.00314361
-0.00315787
-0.00317322
-0.00318972
-0.00320745
-0.00322648
-0.0032469
-0.0032688
-0.00329225
-0.00331737
-0.00334426
-0.00337301
-0.00340375
-0.0034366
-0.00347168
-0.00350915
-0.00354914
-0.00359181
-0.00363733
-0.0036859
-0.00373769
-0.00379294
-0.00385186
-0.00391472
-0.00398177
-0.00405332
-0.0041297
-0.00421125
-0.00429837
-0.00439148
-0.00449105
-0.0045976
-0.00471172
-0.00483403
-0.00496526
-0.0051062
-0.00525777
-0.00542097
-0.00559696
-0.00578707
-0.0059928
-0.00621591
-0.00645843
-0.00672273
-0.00701159
-0.0073283
-0.00767675
-0.00806157
-0.00848826
-0.00896337
-0.00949471
-0.0100915
-0.0107646
-0.0115268
-0.0123927
-0.0133788
-0.0145039
-0.0157878
-0.0172517
-0.0189166
-0.0208026
-0.0229267
-0.0253017
-0.0279336
-0.0308206
-0.0339514
-0.0373045
-0.0408489
-0.044545
-0.0483472
-0.0522063
-0.0560733
-0.0599014
-0.00322716
-0.00322863
-0.0032302
-0.00323186
-0.00323371
-0.00323576
-0.00323803
-0.00324052
-0.00324326
-0.00324626
-0.00324955
-0.00325314
-0.00325705
-0.00326132
-0.00326597
-0.00327104
-0.00327654
-0.00328252
-0.00328902
-0.00329606
-0.0033037
-0.00331198
-0.00332094
-0.00333063
-0.00334111
-0.00335242
-0.00336463
-0.0033778
-0.00339199
-0.00340727
-0.00342371
-0.00344138
-0.00346037
-0.00348075
-0.00350262
-0.00352607
-0.00355119
-0.00357809
-0.00360689
-0.00363769
-0.00367062
-0.00370582
-0.00374343
-0.00378359
-0.00382648
-0.00387226
-0.00392113
-0.00397328
-0.00402894
-0.00408834
-0.00415173
-0.0042194
-0.00429165
-0.00436881
-0.00445124
-0.00453934
-0.00463354
-0.00473433
-0.00484224
-0.00495785
-0.00508182
-0.00521487
-0.00535783
-0.00551159
-0.00567721
-0.00585585
-0.00604884
-0.00625772
-0.00648425
-0.00673049
-0.00699881
-0.00729201
-0.00761338
-0.00796681
-0.00835693
-0.00878922
-0.0092702
-0.00980761
-0.0104106
-0.01109
-0.0118583
-0.01273
-0.0137216
-0.0148513
-0.016139
-0.0176055
-0.0192715
-0.021157
-0.023279
-0.0256502
-0.0282771
-0.0311582
-0.0342828
-0.0376302
-0.0411703
-0.0448646
-0.0486683
-0.052533
-0.0564099
-0.0602527
-0.00345966
-0.00346084
-0.00346214
-0.00346357
-0.00346519
-0.00346702
-0.00346907
-0.00347136
-0.00347391
-0.00347672
-0.00347982
-0.00348323
-0.00348698
-0.00349109
-0.00349558
-0.00350048
-0.00350583
-0.00351167
-0.00351801
-0.00352491
-0.00353241
-0.00354054
-0.00354935
-0.0035589
-0.00356923
-0.00358039
-0.00359245
-0.00360547
-0.00361951
-0.00363463
-0.00365091
-0.00366843
-0.00368727
-0.0037075
-0.00372922
-0.00375252
-0.0037775
-0.00380427
-0.00383294
-0.00386364
-0.00389647
-0.00393159
-0.00396914
-0.00400927
-0.00405215
-0.00409795
-0.00414687
-0.00419911
-0.00425491
-0.00431449
-0.00437812
-0.00444608
-0.00451869
-0.00459628
-0.00467922
-0.00476791
-0.0048628
-0.00496437
-0.00507318
-0.0051898
-0.00531491
-0.00544924
-0.00559362
-0.00574897
-0.00591634
-0.0060969
-0.00629202
-0.00650322
-0.00673229
-0.00698126
-0.00725254
-0.00754891
-0.00787365
-0.00823065
-0.00862448
-0.00906059
-0.00954544
-0.0100867
-0.0106934
-0.0113761
-0.0121472
-0.0130211
-0.0140138
-0.0151433
-0.0164293
-0.0178921
-0.0195524
-0.0214298
-0.0235414
-0.0259001
-0.0285126
-0.0313782
-0.0344869
-0.0378191
-0.0413459
-0.0450298
-0.0488271
-0.0526902
-0.0565708
-0.0604227
-0.00368588
-0.0036868
-0.00368787
-0.00368909
-0.0036905
-0.00369213
-0.00369399
-0.0036961
-0.00369846
-0.00370109
-0.00370402
-0.00370727
-0.00371085
-0.00371479
-0.00371912
-0.00372386
-0.00372905
-0.00373472
-0.0037409
-0.00374763
-0.00375495
-0.0037629
-0.00377153
-0.00378089
-0.00379102
-0.00380198
-0.00381382
-0.00382662
-0.00384042
-0.00385531
-0.00387134
-0.00388861
-0.00390717
-0.00392713
-0.00394858
-0.0039716
-0.00399629
-0.00402278
-0.00405116
-0.00408157
-0.00411412
-0.00414897
-0.00418625
-0.00422612
-0.00426876
-0.00431434
-0.00436306
-0.00441513
-0.00447078
-0.00453025
-0.00459381
-0.00466174
-0.00473437
-0.00481203
-0.0048951
-0.004984
-0.00507916
-0.00518108
-0.00529032
-0.00540747
-0.00553321
-0.00566827
-0.0058135
-0.00596982
-0.00613829
-0.00632009
-0.00651658
-0.00672929
-0.00696001
-0.00721078
-0.00748398
-0.00778239
-0.00810926
-0.00846845
-0.00886448
-0.00930273
-0.00978955
-0.0103325
-0.0109404
-0.0116238
-0.0123947
-0.0132672
-0.0142571
-0.015382
-0.0166611
-0.0181146
-0.0197628
-0.0216252
-0.0237188
-0.0260568
-0.0286464
-0.0314876
-0.0345714
-0.0378794
-0.041384
-0.0450491
-0.0488321
-0.0526865
-0.0565643
-0.0604193
-0.00390584
-0.00390654
-0.00390741
-0.00390843
-0.00390967
-0.00391112
-0.00391281
-0.00391475
-0.00391694
-0.00391942
-0.00392219
-0.00392527
-0.00392869
-0.00393247
-0.00393664
-0.00394122
-0.00394623
-0.00395172
-0.00395772
-0.00396426
-0.00397138
-0.00397912
-0.00398753
-0.00399664
-0.00400652
-0.00401722
-0.00402879
-0.00404129
-0.00405478
-0.00406934
-0.00408503
-0.00410193
-0.00412012
-0.00413969
-0.00416073
-0.00418333
-0.00420759
-0.00423363
-0.00426156
-0.0042915
-0.00432358
-0.00435795
-0.00439476
-0.00443415
-0.00447632
-0.00452143
-0.0045697
-0.00462132
-0.00467654
-0.00473561
-0.00479878
-0.00486637
-0.00493868
-0.00501606
-0.00509889
-0.00518759
-0.00528261
-0.00538446
-0.00549368
-0.00561088
-0.00573674
-0.005872
-0.00601751
-0.0061742
-0.00634313
-0.00652548
-0.0067226
-0.00693604
-0.00716757
-0.00741922
-0.00769335
-0.00799272
-0.00832055
-0.00868062
-0.00907742
-0.00951621
-0.0100032
-0.0105459
-0.0111529
-0.0118344
-0.0126023
-0.0134702
-0.0144536
-0.0155698
-0.0168376
-0.0182766
-0.019907
-0.0217481
-0.0238169
-0.0261268
-0.0286854
-0.0314941
-0.0345444
-0.0378197
-0.0412937
-0.0449319
-0.0486929
-0.052531
-0.0563992
-0.060251
-0.0041196
-0.00412011
-0.0041208
-0.00412167
-0.00412275
-0.00412405
-0.00412559
-0.00412738
-0.00412943
-0.00413176
-0.00413438
-0.00413731
-0.00414058
-0.00414421
-0.00414821
-0.00415262
-0.00415746
-0.00416276
-0.00416855
-0.00417488
-0.00418177
-0.00418926
-0.00419741
-0.00420624
-0.00421582
-0.0042262
-0.00423742
-0.00424955
-0.00426265
-0.00427679
-0.00429205
-0.00430848
-0.00432618
-0.00434524
-0.00436574
-0.00438777
-0.00441145
-0.00443688
-0.00446419
-0.00449348
-0.00452491
-0.0045586
-0.00459471
-0.00463341
-0.00467487
-0.00471927
-0.00476682
-0.00481774
-0.00487225
-0.00493061
-0.00499309
-0.00506
-0.00513165
-0.0052084
-0.00529062
-0.00537874
-0.00547322
-0.00557456
-0.00568331
-0.00580009
-0.00592558
-0.00606052
-0.00620576
-0.00636224
-0.006531
-0.00671324
-0.00691031
-0.00712372
-0.00735525
-0.00760691
-0.00788103
-0.00818033
-0.00850799
-0.00886774
-0.00926395
-0.00970181
-0.0101874
-0.010728
-0.011332
-0.0120093
-0.0127716
-0.0136321
-0.0146058
-0.0157097
-0.016962
-0.018382
-0.0199896
-0.0218037
-0.0238415
-0.0261166
-0.0286374
-0.0314056
-0.0344146
-0.0376491
-0.0410845
-0.0446877
-0.0484189
-0.0522337
-0.0560853
-0.0599275
-0.00432724
-0.0043276
-0.00432814
-0.00432888
-0.00432984
-0.00433101
-0.00433243
-0.00433409
-0.00433601
-0.00433821
-0.0043407
-0.0043435
-0.00434662
-0.00435009
-0.00435393
-0.00435817
-0.00436282
-0.00436792
-0.0043735
-0.00437959
-0.00438622
-0.00439344
-0.00440128
-0.0044098
-0.00441902
-0.00442901
-0.00443983
-0.00445152
-0.00446415
-0.00447778
-0.00449249
-0.00450836
-0.00452546
-0.00454387
-0.0045637
-0.00458503
-0.00460797
-0.00463264
-0.00465914
-0.00468761
-0.00471818
-0.004751
-0.00478621
-0.00482398
-0.0048645
-0.00490794
-0.00495452
-0.00500445
-0.00505797
-0.00511534
-0.00517682
-0.00524274
-0.00531339
-0.00538916
-0.00547041
-0.00555757
-0.0056511
-0.00575152
-0.00585937
-0.00597527
-0.00609991
-0.00623402
-0.00637846
-0.00653416
-0.00670217
-0.00688367
-0.00707999
-0.00729267
-0.00752343
-0.00777427
-0.00804749
-0.00834578
-0.00867223
-0.00903051
-0.00942491
-0.00986047
-0.0103431
-0.0108799
-0.0114791
-0.0121503
-0.0129047
-0.0137552
-0.0147164
-0.0158047
-0.017038
-0.018435
-0.0200152
-0.0217975
-0.0237988
-0.0260332
-0.0285096
-0.0312306
-0.0341911
-0.0373773
-0.0407663
-0.0443269
-0.0480208
-0.0518047
-0.0556328
-0.0594588
-0.00452887
-0.00452912
-0.00452956
-0.0045302
-0.00453105
-0.00453213
-0.00453344
-0.004535
-0.00453682
-0.0045389
-0.00454127
-0.00454395
-0.00454694
-0.00455026
-0.00455394
-0.004558
-0.00456246
-0.00456735
-0.0045727
-0.00457853
-0.00458488
-0.00459179
-0.00459929
-0.00460743
-0.00461625
-0.0046258
-0.00463614
-0.00464731
-0.00465939
-0.00467243
-0.00468651
-0.00470169
-0.00471807
-0.00473572
-0.00475474
-0.00477522
-0.00479728
-0.00482101
-0.00484654
-0.00487401
-0.00490353
-0.00493526
-0.00496936
-0.00500599
-0.00504532
-0.00508756
-0.00513291
-0.00518159
-0.00523384
-0.00528992
-0.00535011
-0.0054147
-0.00548404
-0.00555848
-0.0056384
-0.00572423
-0.00581643
-0.00591552
-0.00602205
-0.00613663
-0.00625995
-0.00639275
-0.00653588
-0.00669026
-0.00685695
-0.0070371
-0.00723206
-0.00744331
-0.00767259
-0.00792184
-0.00819334
-0.00848971
-0.00881401
-0.00916979
-0.00956123
-0.00999326
-0.0104717
-0.0110032
-0.0115959
-0.0122591
-0.0130037
-0.013842
-0.0147881
-0.0158581
-0.0170692
-0.0184399
-0.019989
-0.021735
-0.0236952
-0.0258836
-0.0283099
-0.0309777
-0.0338831
-0.037014
-0.0403495
-0.0438601
-0.0475093
-0.0512551
-0.0550524
-0.0588553
-0.00472464
-0.00472481
-0.00472518
-0.00472575
-0.00472654
-0.00472755
-0.00472878
-0.00473026
-0.004732
-0.00473399
-0.00473626
-0.00473882
-0.00474168
-0.00474487
-0.00474839
-0.00475228
-0.00475654
-0.00476121
-0.00476631
-0.00477186
-0.0047779
-0.00478447
-0.00479159
-0.00479931
-0.00480768
-0.00481673
-0.00482652
-0.00483711
-0.00484854
-0.0048609
-0.00487424
-0.00488864
-0.00490418
-0.00492094
-0.00493902
-0.00495851
-0.00497952
-0.00500216
-0.00502655
-0.00505281
-0.0050811
-0.00511154
-0.00514431
-0.00517957
-0.00521749
-0.00525829
-0.00530215
-0.00534931
-0.00540002
-0.00545452
-0.00551311
-0.00557608
-0.00564378
-0.00571655
-0.00579479
-0.00587893
-0.00596943
-0.00606679
-0.00617159
-0.00628443
-0.00640598
-0.00653701
-0.00667835
-0.00683091
-0.00699573
-0.00717398
-0.00736697
-0.00757617
-0.00780329
-0.00805024
-0.00831926
-0.0086129
-0.00893415
-0.00928649
-0.00967397
-0.0101014
-0.0105743
-0.0110993
-0.0116841
-0.0123378
-0.0130706
-0.0138949
-0.014824
-0.0158733
-0.0170597
-0.018401
-0.0199157
-0.021622
-0.023537
-0.0256751
-0.0280463
-0.0306554
-0.0334999
-0.0365693
-0.0398445
-0.0432981
-0.0468954
-0.0505959
-0.0543554
-0.0581283
-0.0049147
-0.00491484
-0.00491517
-0.00491571
-0.00491646
-0.00491743
-0.00491862
-0.00492005
-0.00492172
-0.00492364
-0.00492583
-0.00492829
-0.00493104
-0.00493409
-0.00493747
-0.00494117
-0.00494523
-0.00494967
-0.0049545
-0.00495976
-0.00496547
-0.00497166
-0.00497836
-0.00498562
-0.00499348
-0.00500197
-0.00501115
-0.00502107
-0.00503179
-0.00504336
-0.00505587
-0.00506937
-0.00508395
-0.0050997
-0.0051167
-0.00513505
-0.00515487
-0.00517625
-0.00519932
-0.00522421
-0.00525106
-0.00528002
-0.00531124
-0.00534491
-0.00538119
-0.00542029
-0.00546242
-0.0055078
-0.00555669
-0.00560933
-0.00566603
-0.00572708
-0.00579281
-0.0058636
-0.00593982
-0.00602192
-0.00611035
-0.00620562
-0.00630829
-0.00641898
-0.00653836
-0.00666717
-0.00680624
-0.0069565
-0.00711896
-0.00729478
-0.00748524
-0.00769181
-0.00791615
-0.00816015
-0.00842599
-0.00871616
-0.00903358
-0.00938163
-0.00976423
-0.010186
-0.0106524
-0.0111697
-0.0117454
-0.0123881
-0.013108
-0.0139165
-0.0148267
-0.0158535
-0.017013
-0.0183226
-0.0198003
-0.021464
-0.0233306
-0.0254146
-0.0277267
-0.0302725
-0.0330509
-0.036053
-0.0392618
-0.0426519
-0.0461904
-0.0498386
-0.0535533
-0.0572894
-0.00509924
-0.00509939
-0.00509973
-0.00510027
-0.00510101
-0.00510197
-0.00510314
-0.00510454
-0.00510618
-0.00510805
-0.00511017
-0.00511255
-0.0051152
-0.00511813
-0.00512135
-0.00512488
-0.00512874
-0.00513293
-0.00513749
-0.00514243
-0.00514777
-0.00515356
-0.00515981
-0.00516656
-0.00517385
-0.00518172
-0.00519022
-0.0051994
-0.00520931
-0.00522002
-0.00523159
-0.00524409
-0.0052576
-0.0052722
-0.00528799
-0.00530505
-0.00532351
-0.00534347
-0.00536505
-0.00538838
-0.0054136
-0.00544087
-0.00547034
-0.00550219
-0.0055366
-0.00557377
-0.00561392
-0.00565727
-0.00570406
-0.00575458
-0.00580909
-0.00586792
-0.00593139
-0.00599988
-0.00607376
-0.00615347
-0.00623949
-0.0063323
-0.00643248
-0.00654063
-0.00665743
-0.00678361
-0.00692
-0.0070675
-0.00722713
-0.00740003
-0.00758746
-0.00779086
-0.00801185
-0.00825231
-0.00851433
-0.00880038
-0.00911326
-0.00945626
-0.0098332
-0.0102485
-0.0107075
-0.0112161
-0.0117816
-0.0124123
-0.0131179
-0.0139094
-0.0147994
-0.0158021
-0.0169331
-0.0182091
-0.0196477
-0.0212665
-0.023082
-0.0251089
-0.0273585
-0.0298372
-0.032545
-0.035475
-0.0386119
-0.0419325
-0.0454059
-0.048995
-0.0526579
-0.0563503
-0.00527846
-0.00527866
-0.00527904
-0.00527962
-0.00528039
-0.00528137
-0.00528256
-0.00528396
-0.00528558
-0.00528743
-0.0052895
-0.00529182
-0.00529438
-0.0052972
-0.00530027
-0.00530363
-0.00530727
-0.00531121
-0.00531548
-0.00532008
-0.00532504
-0.00533038
-0.00533614
-0.00534233
-0.00534901
-0.0053562
-0.00536395
-0.00537232
-0.00538134
-0.00539108
-0.00540161
-0.005413
-0.00542531
-0.00543864
-0.00545308
-0.00546871
-0.00548566
-0.00550403
-0.00552394
-0.00554553
-0.00556894
-0.00559432
-0.00562183
-0.00565164
-0.00568395
-0.00571896
-0.00575687
-0.00579793
-0.00584238
-0.00589049
-0.00594255
-0.00599887
-0.00605978
-0.00612566
-0.00619689
-0.0062739
-0.00635716
-0.00644718
-0.00654451
-0.00664977
-0.00676361
-0.00688677
-0.00702007
-0.00716441
-0.00732078
-0.0074903
-0.00767423
-0.00787397
-0.00809111
-0.00832748
-0.00858514
-0.00886648
-0.00917416
-0.00951148
-0.00988206
-0.0102902
-0.0107409
-0.0112401
-0.0117946
-0.0124124
-0.0131026
-0.0138761
-0.0147447
-0.0157221
-0.0168234
-0.0180645
-0.0194626
-0.0210346
-0.0227972
-0.0247648
-0.0269492
-0.0293575
-0.0319913
-0.0348448
-0.037905
-0.0411507
-0.044553
-0.0480767
-0.0516813
-0.0553234
-0.00545257
-0.00545287
-0.00545334
-0.00545399
-0.00545482
-0.00545586
-0.00545709
-0.00545852
-0.00546016
-0.005462
-0.00546405
-0.00546632
-0.00546881
-0.00547152
-0.00547446
-0.00547764
-0.00548106
-0.00548475
-0.0054887
-0.00549295
-0.00549749
-0.00550236
-0.00550758
-0.00551318
-0.00551919
-0.00552564
-0.00553257
-0.00554004
-0.00554809
-0.00555677
-0.00556616
-0.00557632
-0.00558732
-0.00559925
-0.00561219
-0.00562625
-0.00564153
-0.00565815
-0.00567622
-0.00569589
-0.00571729
-0.00574057
-0.00576591
-0.00579348
-0.00582346
-0.00585607
-0.00589152
-0.00593004
-0.00597189
-0.00601733
-0.00606666
-0.0061202
-0.00617827
-0.00624124
-0.00630952
-0.00638352
-0.00646372
-0.00655062
-0.00664477
-0.00674679
-0.00685732
-0.00697711
-0.00710695
-0.00724773
-0.00740044
-0.00756618
-0.00774619
-0.00794183
-0.00815467
-0.00838647
-0.00863926
-0.00891535
-0.00921738
-0.00954843
-0.00991204
-0.0103124
-0.0107542
-0.0112433
-0.011786
-0.0123901
-0.0130644
-0.0138191
-0.0146655
-0.0156169
-0.0166874
-0.0178928
-0.0192492
-0.0207734
-0.0224816
-0.0243884
-0.0265057
-0.0288414
-0.031398
-0.0341717
-0.0371511
-0.0403171
-0.043643
-0.0470954
-0.0506355
-0.0542208
-0.0056218
-0.00562224
-0.00562284
-0.0056236
-0.00562454
-0.00562566
-0.00562697
-0.00562846
-0.00563014
-0.005632
-0.00563405
-0.00563629
-0.00563872
-0.00564133
-0.00564414
-0.00564715
-0.00565036
-0.00565378
-0.00565741
-0.00566127
-0.00566538
-0.00566974
-0.00567439
-0.00567934
-0.00568462
-0.00569027
-0.00569632
-0.00570281
-0.00570979
-0.00571733
-0.00572547
-0.00573429
-0.00574385
-0.00575425
-0.00576556
-0.0057779
-0.00579136
-0.00580605
-0.00582212
-0.00583967
-0.00585887
-0.00587987
-0.00590283
-0.00592794
-0.00595538
-0.00598536
-0.0060181
-0.00605384
-0.00609284
-0.00613537
-0.00618171
-0.00623219
-0.00628714
-0.00634694
-0.00641197
-0.00648268
-0.00655952
-0.00664299
-0.00673366
-0.00683211
-0.00693902
-0.00705509
-0.00718113
-0.00731801
-0.00746671
-0.0076283
-0.007804
-0.00799515
-0.00820328
-0.00843011
-0.0086776
-0.008948
-0.00924388
-0.00956819
-0.00992436
-0.0103164
-0.0107489
-0.0112272