/*--------------------------------*- C++ -*----------------------------------*\
| =========                 |                                                 |
| \\      /  F ield         | OpenFOAM: The Open Source CFD Toolbox           |
|  \\    /   O peration     | Version:  2406                                  |
|   \\  /    A nd           | Website:  www.openfoam.com                      |
|    \\/     M anipulation  |                                                 |
\*---------------------------------------------------------------------------*/
FoamFile
{
    version     2.0;
    format      ascii;
    arch        "LSB;label=32;scalar=64";
    class       surfaceScalarField;
    location    "7";
    object      phi;
}
// * * * * * * * * * * * * * * * * * * * * * * * * * * * * * * * * * * * * * //

dimensions      [0 3 -1 0 0 0 0];

oriented        oriented;

internalField   nonuniform List<scalar> 
79600
(
-2.92643e-09
1.83067e-07
-1.80168e-07
-1.17092e-08
5.49182e-07
-5.40399e-07
-2.65558e-08
9.20913e-07
-9.06066e-07
-4.76466e-08
1.29802e-06
-1.27693e-06
-7.51633e-08
1.68027e-06
-1.65275e-06
-1.09288e-07
2.06738e-06
-2.03325e-06
-1.50201e-07
2.45909e-06
-2.41818e-06
-1.98084e-07
2.85512e-06
-2.80724e-06
-2.53115e-07
3.25518e-06
-3.20015e-06
-3.1547e-07
3.65897e-06
-3.59662e-06
-3.85324e-07
4.0662e-06
-3.99634e-06
-4.62848e-07
4.47654e-06
-4.39902e-06
-5.48208e-07
4.8897e-06
-4.80434e-06
-6.41568e-07
5.30536e-06
-5.212e-06
-7.43086e-07
5.72321e-06
-5.62169e-06
-8.52916e-07
6.14294e-06
-6.03311e-06
-9.71206e-07
6.56424e-06
-6.44595e-06
-1.0981e-06
6.98681e-06
-6.85992e-06
-1.23373e-06
7.41038e-06
-7.27475e-06
-1.37822e-06
7.83464e-06
-7.69015e-06
-1.53171e-06
8.25935e-06
-8.10586e-06
-1.69431e-06
8.68424e-06
-8.52164e-06
-1.86613e-06
9.10908e-06
-8.93726e-06
-2.04728e-06
9.53365e-06
-9.35251e-06
-2.23786e-06
9.95778e-06
-9.7672e-06
-2.43796e-06
1.03813e-05
-1.01812e-05
-2.64766e-06
1.0804e-05
-1.05943e-05
-2.86707e-06
1.12259e-05
-1.10065e-05
-3.09625e-06
1.16468e-05
-1.14176e-05
-3.3353e-06
1.20667e-05
-1.18276e-05
-3.58428e-06
1.24855e-05
-1.22366e-05
-3.84328e-06
1.29034e-05
-1.26444e-05
-4.11238e-06
1.33204e-05
-1.30513e-05
-4.39165e-06
1.37365e-05
-1.34572e-05
-4.68118e-06
1.4152e-05
-1.38624e-05
-4.98107e-06
1.45669e-05
-1.4267e-05
-5.29142e-06
1.49816e-05
-1.46713e-05
-5.61233e-06
1.53963e-05
-1.50754e-05
-5.94392e-06
1.58113e-05
-1.54797e-05
-6.28633e-06
1.62271e-05
-1.58846e-05
-6.63972e-06
1.66439e-05
-1.62905e-05
-7.00425e-06
1.70622e-05
-1.66977e-05
-7.38012e-06
1.74826e-05
-1.71068e-05
-7.76756e-06
1.79056e-05
-1.75182e-05
-8.1668e-06
1.83318e-05
-1.79326e-05
-8.57813e-06
1.87618e-05
-1.83505e-05
-9.00187e-06
1.91963e-05
-1.87726e-05
-9.43838e-06
1.9636e-05
-1.91995e-05
-9.88806e-06
2.00817e-05
-1.9632e-05
-1.03514e-05
2.05341e-05
-2.00708e-05
-1.08288e-05
2.09942e-05
-2.05168e-05
-1.1321e-05
2.14629e-05
-2.09707e-05
-1.18285e-05
2.19411e-05
-2.14336e-05
-1.23521e-05
2.24298e-05
-2.19063e-05
-1.28925e-05
2.29303e-05
-2.23898e-05
-1.34508e-05
2.34435e-05
-2.28853e-05
-1.40278e-05
2.39709e-05
-2.33938e-05
-1.46248e-05
2.45137e-05
-2.39167e-05
-1.5243e-05
2.50736e-05
-2.44554e-05
-1.58838e-05
2.56522e-05
-2.50113e-05
-1.65489e-05
2.62513e-05
-2.55862e-05
-1.72401e-05
2.68734e-05
-2.61821e-05
-1.79595e-05
2.75207e-05
-2.68013e-05
-1.87095e-05
2.81964e-05
-2.74464e-05
-1.94927e-05
2.89038e-05
-2.81206e-05
-2.03122e-05
2.96473e-05
-2.88278e-05
-2.11717e-05
3.04319e-05
-2.95725e-05
-2.2075e-05
3.12637e-05
-3.03604e-05
-2.3027e-05
3.21502e-05
-3.11982e-05
-2.4033e-05
3.31003e-05
-3.20943e-05
-2.5099e-05
3.41248e-05
-3.30588e-05
-2.62321e-05
3.52368e-05
-3.41037e-05
-2.74402e-05
3.64518e-05
-3.52436e-05
-2.87323e-05
3.77878e-05
-3.64957e-05
-3.01182e-05
3.92658e-05
-3.78799e-05
-3.16089e-05
4.09097e-05
-3.94189e-05
-3.32162e-05
4.27456e-05
-4.11383e-05
-3.49524e-05
4.48017e-05
-4.30656e-05
-3.683e-05
4.71072e-05
-4.52295e-05
-3.88615e-05
4.96902e-05
-4.76587e-05
-4.10581e-05
5.25762e-05
-5.03795e-05
-4.34294e-05
5.57847e-05
-5.34135e-05
-4.59817e-05
5.93265e-05
-5.67741e-05
-4.87177e-05
6.31996e-05
-6.04636e-05
-5.16345e-05
6.73855e-05
-6.44687e-05
-5.47228e-05
7.18457e-05
-6.87574e-05
-5.79661e-05
7.65193e-05
-7.3276e-05
-6.13397e-05
8.13204e-05
-7.79468e-05
-6.48106e-05
8.61391e-05
-8.26682e-05
-6.83382e-05
9.0843e-05
-8.73154e-05
-7.18751e-05
9.52813e-05
-9.17445e-05
-7.53689e-05
9.92912e-05
-9.57974e-05
-7.8765e-05
0.000102706
-9.93099e-05
-8.20098e-05
0.000105365
-0.00010212
-8.5054e-05
0.000107123
-0.000104079
-8.78567e-05
0.000107862
-0.000105059
-9.03886e-05
0.000107497
-0.000104965
-9.2635e-05
0.000105985
-0.000103738
-9.45971e-05
0.000103324
-0.000101362
9.95532e-05
-9.62921e-05
-9.78582e-05
-2.64351e-09
1.8571e-07
-1.06675e-08
5.57206e-07
-2.42535e-08
9.34499e-07
-4.35847e-08
1.31735e-06
-6.88455e-08
1.70553e-06
-1.00221e-07
2.09875e-06
-1.37896e-07
2.49677e-06
-1.82056e-07
2.89928e-06
-2.32884e-07
3.30601e-06
-2.90562e-07
3.71665e-06
-3.5527e-07
4.1309e-06
-4.27186e-07
4.54846e-06
-5.06482e-07
4.969e-06
-5.9333e-07
5.39221e-06
-6.87893e-07
5.81777e-06
-7.90334e-07
6.24538e-06
-9.00806e-07
6.67471e-06
-1.01946e-06
7.10547e-06
-1.14644e-06
7.53736e-06
-1.28188e-06
7.97009e-06
-1.42592e-06
8.40338e-06
-1.57867e-06
8.83699e-06
-1.74026e-06
9.27067e-06
-1.9108e-06
9.70419e-06
-2.09039e-06
1.01374e-05
-2.27913e-06
1.057e-05
-2.47712e-06
1.1002e-05
-2.68444e-06
1.14332e-05
-2.90118e-06
1.18635e-05
-3.12743e-06
1.22929e-05
-3.36325e-06
1.27214e-05
-3.60873e-06
1.31489e-05
-3.86395e-06
1.35756e-05
-4.12898e-06
1.40015e-05
-4.40391e-06
1.44269e-05
-4.68882e-06
1.48518e-05
-4.9838e-06
1.52766e-05
-5.28896e-06
1.57015e-05
-5.6044e-06
1.61268e-05
-5.93024e-06
1.65529e-05
-6.26664e-06
1.69803e-05
-6.61373e-06
1.74093e-05
-6.97171e-06
1.78406e-05
-7.34077e-06
1.82747e-05
-7.72113e-06
1.87122e-05
-8.11306e-06
1.91538e-05
-8.51685e-06
1.96001e-05
-8.93283e-06
2.0052e-05
-9.36138e-06
2.05102e-05
-9.80291e-06
2.09756e-05
-1.02579e-05
2.14492e-05
-1.07269e-05
2.19319e-05
-1.12105e-05
2.24247e-05
-1.17094e-05
2.29287e-05
-1.22243e-05
2.34452e-05
-1.27561e-05
2.39753e-05
-1.33058e-05
2.45205e-05
-1.38744e-05
2.50823e-05
-1.44631e-05
2.56623e-05
-1.50733e-05
2.62624e-05
-1.57066e-05
2.68847e-05
-1.63648e-05
2.75315e-05
-1.70497e-05
2.82056e-05
-1.77636e-05
2.89103e-05
-1.85091e-05
2.96494e-05
-1.92892e-05
3.04274e-05
-2.01072e-05
3.12499e-05
-2.09668e-05
3.21234e-05
-2.18726e-05
3.30559e-05
-2.28294e-05
3.40571e-05
-2.3843e-05
3.51384e-05
-2.49198e-05
3.63136e-05
-2.60671e-05
3.75991e-05
-2.7293e-05
3.90137e-05
-2.86065e-05
4.05792e-05
-3.00171e-05
4.23203e-05
-3.15353e-05
4.42638e-05
-3.31718e-05
4.64382e-05
-3.49372e-05
4.88726e-05
-3.68416e-05
5.15947e-05
-3.88942e-05
5.46287e-05
-4.11019e-05
5.79924e-05
-4.34689e-05
6.16934e-05
-4.59953e-05
6.57259e-05
-4.86763e-05
7.00665e-05
-5.15013e-05
7.46707e-05
-5.44529e-05
7.94709e-05
-5.75068e-05
8.43742e-05
-6.06314e-05
8.92638e-05
-6.37889e-05
9.40005e-05
-6.6936e-05
9.84284e-05
-7.00261e-05
0.000102381
-7.30119e-05
0.000105692
-7.58479e-05
0.000108201
-7.84942e-05
0.00010977
-8.09198e-05
0.000110288
-8.31051e-05
0.000109683
-8.50447e-05
0.000107924
-8.67473e-05
0.000105027
0.000101042
-8.8236e-05
-2.39241e-09
1.88103e-07
-9.67354e-09
5.64487e-07
-2.20258e-08
9.46851e-07
-3.96344e-08
1.33496e-06
-6.26861e-08
1.72858e-06
-9.13685e-08
2.12744e-06
-1.2587e-07
2.53127e-06
-1.6638e-07
2.93979e-06
-2.13086e-07
3.35271e-06
-2.66174e-07
3.76974e-06
-3.2583e-07
4.19056e-06
-3.92235e-07
4.61486e-06
-4.65571e-07
5.04233e-06
-5.46012e-07
5.47265e-06
-6.33729e-07
5.90549e-06
-7.28891e-07
6.34054e-06
-8.31658e-07
6.77748e-06
-9.42187e-07
7.216e-06
-1.06063e-06
7.6558e-06
-1.18712e-06
8.09658e-06
-1.32181e-06
8.53807e-06
-1.46482e-06
8.98e-06
-1.61628e-06
9.42212e-06
-1.7763e-06
9.86421e-06
-1.94499e-06
1.03061e-05
-2.12245e-06
1.07475e-05
-2.30879e-06
1.11883e-05
-2.50409e-06
1.16285e-05
-2.70845e-06
1.20679e-05
-2.92193e-06
1.25064e-05
-3.14463e-06
1.29441e-05
-3.37661e-06
1.33809e-05
-3.61795e-06
1.38169e-05
-3.86873e-06
1.42523e-05
-4.12902e-06
1.46872e-05
-4.39891e-06
1.51217e-05
-4.67846e-06
1.55562e-05
-4.96778e-06
1.59908e-05
-5.26696e-06
1.6426e-05
-5.57611e-06
1.68621e-05
-5.89536e-06
1.72995e-05
-6.22484e-06
1.77388e-05
-6.56471e-06
1.81805e-05
-6.91515e-06
1.86251e-05
-7.27637e-06
1.90734e-05
-7.64859e-06
1.9526e-05
-8.03208e-06
1.99836e-05
-8.42713e-06
2.0447e-05
-8.8341e-06
2.09172e-05
-9.25337e-06
2.13949e-05
-9.68536e-06
2.18812e-05
-1.01306e-05
2.23771e-05
-1.05896e-05
2.28837e-05
-1.1063e-05
2.34021e-05
-1.15515e-05
2.39337e-05
-1.2056e-05
2.44798e-05
-1.25772e-05
2.50418e-05
-1.31163e-05
2.56214e-05
-1.36743e-05
2.62203e-05
-1.42526e-05
2.68407e-05
-1.48525e-05
2.74846e-05
-1.54758e-05
2.81547e-05
-1.61243e-05
2.88541e-05
-1.68001e-05
2.95861e-05
-1.75055e-05
3.03548e-05
-1.82434e-05
3.11653e-05
-1.90169e-05
3.20233e-05
-1.98294e-05
3.29359e-05
-2.06851e-05
3.39116e-05
-2.15884e-05
3.49604e-05
-2.25447e-05
3.60947e-05
-2.35597e-05
3.73286e-05
-2.46399e-05
3.86793e-05
-2.57925e-05
4.01663e-05
-2.70255e-05
4.18122e-05
-2.83471e-05
4.3642e-05
-2.97663e-05
4.5683e-05
-3.1292e-05
4.79639e-05
-3.29331e-05
5.05136e-05
-3.46975e-05
5.33591e-05
-3.65922e-05
5.65235e-05
-3.86221e-05
6.00222e-05
-4.0789e-05
6.38604e-05
-4.30915e-05
6.80284e-05
-4.55234e-05
7.24984e-05
-4.80733e-05
7.72206e-05
-5.0724e-05
8.21216e-05
-5.34523e-05
8.71025e-05
-5.62291e-05
9.20406e-05
-5.90202e-05
9.67916e-05
-6.17874e-05
0.000101196
-6.44906e-05
0.000105085
-6.70896e-05
0.000108291
-6.95477e-05
0.000110659
-7.18337e-05
0.000112056
-7.39254e-05
0.000112379
-7.58117e-05
0.000111569
-7.74943e-05
0.000109607
-7.89875e-05
0.00010652
0.000102372
-8.03173e-05
-2.14946e-09
1.90252e-07
-8.70959e-09
5.71047e-07
-1.98639e-08
9.58005e-07
-3.57988e-08
1.3509e-06
-5.67028e-08
1.74948e-06
-8.27659e-08
2.1535e-06
-1.1418e-07
2.56268e-06
-1.51135e-07
2.97675e-06
-1.93825e-07
3.3954e-06
-2.42438e-07
3.81835e-06
-2.97165e-07
4.24529e-06
-3.58193e-07
4.67589e-06
-4.25705e-07
5.10984e-06
-4.99882e-07
5.54683e-06
-5.80903e-07
5.98651e-06
-6.68938e-07
6.42857e-06
-7.64155e-07
6.87269e-06
-8.66715e-07
7.31856e-06
-9.76775e-07
7.76586e-06
-1.09448e-06
8.21429e-06
-1.21998e-06
8.66357e-06
-1.3534e-06
9.11342e-06
-1.49488e-06
9.5636e-06
-1.64453e-06
1.00139e-05
-1.80246e-06
1.0464e-05
-1.96879e-06
1.09138e-05
-2.14362e-06
1.13632e-05
-2.32703e-06
1.18119e-05
-2.51911e-06
1.22599e-05
-2.71994e-06
1.27072e-05
-2.92961e-06
1.31537e-05
-3.14818e-06
1.35995e-05
-3.37573e-06
1.40445e-05
-3.61232e-06
1.44889e-05
-3.85802e-06
1.49329e-05
-4.11291e-06
1.53766e-05
-4.37706e-06
1.58203e-05
-4.65054e-06
1.62643e-05
-4.93344e-06
1.67089e-05
-5.22586e-06
1.71545e-05
-5.5279e-06
1.76016e-05
-5.83969e-06
1.80506e-05
-6.16134e-06
1.85022e-05
-6.49303e-06
1.89568e-05
-6.83493e-06
1.94153e-05
-7.18724e-06
1.98783e-05
-7.5502e-06
2.03465e-05
-7.92406e-06
2.08209e-05
-8.30914e-06
2.13023e-05
-8.70578e-06
2.17915e-05
-9.11438e-06
2.22898e-05
-9.53537e-06
2.27981e-05
-9.96927e-06
2.33176e-05
-1.04166e-05
2.38495e-05
-1.08781e-05
2.43952e-05
-1.13545e-05
2.49561e-05
-1.18465e-05
2.55338e-05
-1.23552e-05
2.613e-05
-1.28814e-05
2.67466e-05
-1.34266e-05
2.73858e-05
-1.39919e-05
2.80499e-05
-1.45789e-05
2.87418e-05
-1.51894e-05
2.94645e-05
-1.58252e-05
3.02219e-05
-1.64885e-05
3.10182e-05
-1.7182e-05
3.18588e-05
-1.79084e-05
3.27497e-05
-1.86709e-05
3.36985e-05
-1.94732e-05
3.47139e-05
-2.03195e-05
3.58067e-05
-2.12143e-05
3.69894e-05
-2.21628e-05
3.82771e-05
-2.31706e-05
3.96872e-05
-2.42442e-05
4.12399e-05
-2.53901e-05
4.29581e-05
-2.66154e-05
4.48673e-05
-2.79276e-05
4.69951e-05
-2.93338e-05
4.93702e-05
-3.08411e-05
5.20209e-05
-3.24556e-05
5.49736e-05
-3.41821e-05
5.825e-05
-3.60236e-05
6.18637e-05
-3.79804e-05
6.58172e-05
-4.00495e-05
7.00976e-05
-4.22241e-05
7.46729e-05
-4.44925e-05
7.94891e-05
-4.68386e-05
8.44677e-05
-4.92411e-05
8.9505e-05
-5.16739e-05
9.44734e-05
-5.41072e-05
9.92249e-05
-5.65085e-05
0.000103597
-5.88441e-05
0.00010742
-6.10817e-05
0.000110528
-6.31922e-05
0.00011277
-6.5153e-05
0.000114016
-6.69496e-05
0.000114176
-6.85777e-05
0.000113197
-7.0044e-05
0.000111073
-7.13665e-05
0.000107842
0.000103577
-7.2572e-05
-1.91529e-09
1.92168e-07
-7.78062e-09
5.76912e-07
-1.77797e-08
9.68004e-07
-3.20997e-08
1.36522e-06
-5.09302e-08
1.76831e-06
-7.44631e-08
2.17703e-06
-1.02891e-07
2.59111e-06
-1.36409e-07
3.01026e-06
-1.75211e-07
3.43421e-06
-2.1949e-07
3.86263e-06
-2.69439e-07
4.29524e-06
-3.25248e-07
4.7317e-06
-3.87106e-07
5.1717e-06
-4.55198e-07
5.61492e-06
-5.29705e-07
6.06102e-06
-6.10804e-07
6.50967e-06
-6.98667e-07
6.96056e-06
-7.93458e-07
7.41335e-06
-8.9534e-07
7.86774e-06
-1.00446e-06
8.32341e-06
-1.12098e-06
8.78008e-06
-1.24502e-06
9.23747e-06
-1.37672e-06
9.6953e-06
-1.5162e-06
1.01533e-05
-1.66359e-06
1.06114e-05
-1.81898e-06
1.10692e-05
-1.98248e-06
1.15267e-05
-2.15418e-06
1.19836e-05
-2.33417e-06
1.24399e-05
-2.52253e-06
1.28956e-05
-2.71933e-06
1.33505e-05
-2.92465e-06
1.38048e-05
-3.13854e-06
1.42584e-05
-3.36108e-06
1.47115e-05
-3.59232e-06
1.51641e-05
-3.83233e-06
1.56166e-05
-4.08116e-06
1.60691e-05
-4.33889e-06
1.6522e-05
-4.60558e-06
1.69756e-05
-4.88132e-06
1.74302e-05
-5.16619e-06
1.78864e-05
-5.46028e-06
1.83447e-05
-5.76371e-06
1.88056e-05
-6.07661e-06
1.92697e-05
-6.39914e-06
1.97378e-05
-6.73145e-06
2.02106e-05
-7.07376e-06
2.06888e-05
-7.42628e-06
2.11734e-05
-7.7893e-06
2.16653e-05
-8.16309e-06
2.21653e-05
-8.54802e-06
2.26747e-05
-8.94448e-06
2.31946e-05
-9.35292e-06
2.3726e-05
-9.77384e-06
2.42704e-05
-1.02078e-05
2.48292e-05
-1.06556e-05
2.54038e-05
-1.11178e-05
2.5996e-05
-1.15953e-05
2.66075e-05
-1.20891e-05
2.72404e-05
-1.26002e-05
2.78969e-05
-1.31299e-05
2.85796e-05
-1.36795e-05
2.92914e-05
-1.42507e-05
3.00356e-05
-1.48451e-05
3.08163e-05
-1.54648e-05
3.16379e-05
-1.6112e-05
3.2506e-05
-1.67892e-05
3.3427e-05
-1.74995e-05
3.44087e-05
-1.82459e-05
3.54603e-05
-1.90321e-05
3.65929e-05
-1.98621e-05
3.78195e-05
-2.07404e-05
3.91554e-05
-2.16718e-05
4.06186e-05
-2.26616e-05
4.22297e-05
-2.37153e-05
4.40118e-05
-2.48388e-05
4.59908e-05
-2.60379e-05
4.81942e-05
-2.73181e-05
5.06504e-05
-2.86848e-05
5.33876e-05
-3.01422e-05
5.64311e-05
-3.16935e-05
5.98012e-05
-3.33399e-05
6.35101e-05
-3.50804e-05
6.75577e-05
-3.6911e-05
7.19282e-05
-3.88245e-05
7.65864e-05
-4.08099e-05
8.14745e-05
-4.28523e-05
8.65101e-05
-4.49329e-05
9.15856e-05
-4.70295e-05
9.65699e-05
-4.91168e-05
0.000101312
-5.11683e-05
0.000105648
-5.3157e-05
0.000109409
-5.50579e-05
0.000112429
-5.68496e-05
0.000114561
-5.85166e-05
0.000115683
-6.00511e-05
0.00011571
-6.14541e-05
0.0001146
-6.27359e-05
0.000112355
-6.39159e-05
0.000109022
0.000104681
-6.50202e-05
-1.69143e-09
1.93859e-07
-6.89143e-09
5.82112e-07
-1.57838e-08
9.76897e-07
-2.85559e-08
1.37799e-06
-4.53979e-08
1.78515e-06
-6.65023e-08
2.19814e-06
-9.20637e-08
2.61667e-06
-1.22278e-07
3.04048e-06
-1.5734e-07
3.46927e-06
-1.97447e-07
3.90274e-06
-2.42793e-07
4.34058e-06
-2.93572e-07
4.78248e-06
-3.49975e-07
5.22811e-06
-4.1219e-07
5.67713e-06
-4.80402e-07
6.12923e-06
-5.54791e-07
6.58406e-06
-6.35531e-07
7.0413e-06
-7.22794e-07
7.50061e-06
-8.16741e-07
7.96168e-06
-9.17529e-07
8.4242e-06
-1.02531e-06
8.88786e-06
-1.14022e-06
9.35238e-06
-1.2624e-06
9.81748e-06
-1.39197e-06
1.02829e-05
-1.52906e-06
1.07485e-05
-1.67376e-06
1.12139e-05
-1.82618e-06
1.16791e-05
-1.98642e-06
1.21438e-05
-2.15456e-06
1.26081e-05
-2.33068e-06
1.30717e-05
-2.51485e-06
1.35347e-05
-2.70713e-06
1.39971e-05
-2.90759e-06
1.44588e-05
-3.11628e-06
1.49201e-05
-3.33325e-06
1.53811e-05
-3.55856e-06
1.58419e-05
-3.79225e-06
1.63028e-05
-4.03439e-06
1.67641e-05
-4.28502e-06
1.72262e-05
-4.5442e-06
1.76894e-05
-4.81201e-06
1.81542e-05
-5.08851e-06
1.86212e-05
-5.3738e-06
1.90909e-05
-5.66798e-06
1.95639e-05
-5.97117e-06
2.0041e-05
-6.28351e-06
2.05229e-05
-6.60517e-06
2.10105e-05
-6.93632e-06
2.15046e-05
-7.27721e-06
2.20061e-05
-7.62808e-06
2.25162e-05
-7.98922e-06
2.30359e-05
-8.36099e-06
2.35663e-05
-8.74376e-06
2.41088e-05
-9.138e-06
2.46647e-05
-9.54421e-06
2.52354e-05
-9.96296e-06
2.58226e-05
-1.03949e-05
2.6428e-05
-1.08409e-05
2.70535e-05
-1.13016e-05
2.77012e-05
-1.17781e-05
2.83734e-05
-1.22715e-05
2.9073e-05
-1.27829e-05
2.98029e-05
-1.33138e-05
3.05666e-05
-1.38658e-05
3.13683e-05
-1.44406e-05
3.22127e-05
-1.50402e-05
3.31056e-05
-1.56668e-05
3.40536e-05
-1.6323e-05
3.50649e-05
-1.70115e-05
3.61488e-05
-1.77355e-05
3.73168e-05
-1.84983e-05
3.85822e-05
-1.93036e-05
3.99607e-05
-2.01555e-05
4.14705e-05
-2.10582e-05
4.31324e-05
-2.20162e-05
4.49698e-05
-2.30338e-05
4.70085e-05
-2.41155e-05
4.92759e-05
-2.52655e-05
5.18004e-05
-2.64872e-05
5.46092e-05
-2.77833e-05
5.77272e-05
-2.91553e-05
6.11733e-05
-3.06031e-05
6.49579e-05
-3.21246e-05
6.90791e-05
-3.37153e-05
7.35188e-05
-3.53679e-05
7.8239e-05
-3.70724e-05
8.3179e-05
-3.88157e-05
8.82534e-05
-4.05819e-05
9.33518e-05
-4.23526e-05
9.83406e-05
-4.41078e-05
0.000103067
-4.58267e-05
0.000107367
-4.74889e-05
0.000111071
-4.90764e-05
0.000114017
-5.05748e-05
0.00011606
-5.1975e-05
0.000117084
-5.32745e-05
0.00011701
-5.44784e-05
0.000115804
-5.5599e-05
0.000113476
-5.66557e-05
0.000110079
0.000105698
-5.76726e-05
-1.47865e-09
1.95338e-07
-6.04627e-09
5.8668e-07
-1.38861e-08
9.84737e-07
-2.51849e-08
1.38929e-06
-4.01328e-08
1.8001e-06
-5.89226e-08
2.21693e-06
-8.17492e-08
2.6395e-06
-1.08809e-07
3.06754e-06
-1.40299e-07
3.50076e-06
-1.76417e-07
3.93886e-06
-2.17358e-07
4.38152e-06
-2.63319e-07
4.82844e-06
-3.14492e-07
5.27928e-06
-3.71068e-07
5.73371e-06
-4.33233e-07
6.19139e-06
-5.0117e-07
6.652e-06
-5.75057e-07
7.11518e-06
-6.55065e-07
7.58062e-06
-7.4136e-07
8.04798e-06
-8.34101e-07
8.51694e-06
-9.3344e-07
8.9872e-06
-1.03952e-06
9.45846e-06
-1.15248e-06
9.93044e-06
-1.27244e-06
1.04029e-05
-1.39953e-06
1.08755e-05
-1.53384e-06
1.13482e-05
-1.67549e-06
1.18207e-05
-1.82457e-06
1.22929e-05
-1.98115e-06
1.27647e-05
-2.14532e-06
1.32359e-05
-2.31714e-06
1.37065e-05
-2.49667e-06
1.41766e-05
-2.68396e-06
1.46461e-05
-2.87907e-06
1.51153e-05
-3.08204e-06
1.55841e-05
-3.2929e-06
1.60528e-05
-3.5117e-06
1.65216e-05
-3.73848e-06
1.69909e-05
-3.97326e-06
1.7461e-05
-4.21611e-06
1.79322e-05
-4.46705e-06
1.84052e-05
-4.72615e-06
1.88803e-05
-4.99347e-06
1.93582e-05
-5.26908e-06
1.98395e-05
-5.55308e-06
2.0325e-05
-5.84557e-06
2.08154e-05
-6.14667e-06
2.13116e-05
-6.45655e-06
2.18145e-05
-6.77536e-06
2.2325e-05
-7.10334e-06
2.28442e-05
-7.44071e-06
2.33733e-05
-7.78777e-06
2.39134e-05
-8.14485e-06
2.44659e-05
-8.51231e-06
2.50321e-05
-8.89061e-06
2.56137e-05
-9.28025e-06
2.62122e-05
-9.68178e-06
2.68295e-05
-1.00959e-05
2.74675e-05
-1.05233e-05
2.81285e-05
-1.09648e-05
2.8815e-05
-1.14214e-05
2.95296e-05
-1.18941e-05
3.02756e-05
-1.23843e-05
3.10567e-05
-1.28931e-05
3.18771e-05
-1.34222e-05
3.27418e-05
-1.39733e-05
3.36567e-05
-1.45483e-05
3.46286e-05
-1.51492e-05
3.56658e-05
-1.57786e-05
3.67781e-05
-1.64388e-05
3.79771e-05
-1.71327e-05
3.92761e-05
-1.78632e-05
4.06913e-05
-1.86336e-05
4.22409e-05
-1.94471e-05
4.39458e-05
-2.03069e-05
4.58296e-05
-2.12163e-05
4.79179e-05
-2.21784e-05
5.0238e-05
-2.31957e-05
5.28177e-05
-2.42702e-05
5.56838e-05
-2.54032e-05
5.88602e-05
-2.65947e-05
6.23648e-05
-2.78435e-05
6.62066e-05
-2.91464e-05
7.03821e-05
-3.04989e-05
7.48713e-05
-3.1894e-05
7.96342e-05
-3.33229e-05
8.46079e-05
-3.47744e-05
8.9705e-05
-3.62359e-05
9.48133e-05
-3.76931e-05
9.97978e-05
-3.91308e-05
0.000104505
-4.05343e-05
0.000108771
-4.18894e-05
0.000112426
-4.31847e-05
0.000115312
-4.44119e-05
0.000117287
-4.55676e-05
0.000118239
-4.66536e-05
0.000118096
-4.76777e-05
0.000116828
-4.86534e-05
0.000114452
-4.95987e-05
0.000111024
0.000106634
-5.05346e-05
-1.27809e-09
1.96616e-07
-5.2491e-09
5.90651e-07
-1.2095e-08
9.91583e-07
-2.20016e-08
1.3992e-06
-3.51585e-08
1.81326e-06
-5.17579e-08
2.23353e-06
-7.19945e-08
2.65973e-06
-9.60646e-08
3.09161e-06
-1.24165e-07
3.52886e-06
-1.56495e-07
3.97119e-06
-1.9325e-07
4.41828e-06
-2.34626e-07
4.86982e-06
-2.80818e-07
5.32547e-06
-3.32017e-07
5.78491e-06
-3.88411e-07
6.24779e-06
-4.50185e-07
6.71377e-06
-5.17516e-07
7.18251e-06
-5.90578e-07
7.65368e-06
-6.69538e-07
8.12694e-06
-7.54557e-07
8.60196e-06
-8.45786e-07
9.07843e-06
-9.43372e-07
9.55604e-06
-1.04745e-06
1.00345e-05
-1.15814e-06
1.05136e-05
-1.27558e-06
1.0993e-05
-1.39986e-06
1.14725e-05
-1.53108e-06
1.1952e-05
-1.66934e-06
1.24312e-05
-1.81472e-06
1.291e-05
-1.96728e-06
1.33884e-05
-2.12709e-06
1.38663e-05
-2.29421e-06
1.43437e-05
-2.46867e-06
1.48206e-05
-2.65053e-06
1.52971e-05
-2.83981e-06
1.57734e-05
-3.03654e-06
1.62495e-05
-3.24076e-06
1.67258e-05
-3.45247e-06
1.72026e-05
-3.67171e-06
1.76802e-05
-3.8985e-06
1.8159e-05
-4.13285e-06
1.86395e-05
-4.37481e-06
1.91223e-05
-4.62442e-06
1.96078e-05
-4.88171e-06
2.00968e-05
-5.14674e-06
2.05901e-05
-5.41959e-06
2.10883e-05
-5.70035e-06
2.15924e-05
-5.98913e-06
2.21032e-05
-6.28606e-06
2.26219e-05
-6.59129e-06
2.31494e-05
-6.90503e-06
2.3687e-05
-7.22751e-06
2.42359e-05
-7.55897e-06
2.47973e-05
-7.89975e-06
2.53729e-05
-8.25019e-06
2.59642e-05
-8.61072e-06
2.65728e-05
-8.98181e-06
2.72006e-05
-9.36402e-06
2.78498e-05
-9.75798e-06
2.85225e-05
-1.01644e-05
2.92214e-05
-1.05841e-05
2.99493e-05
-1.10179e-05
3.07095e-05
-1.14669e-05
3.15057e-05
-1.19323e-05
3.23425e-05
-1.24154e-05
3.32248e-05
-1.29175e-05
3.41587e-05
-1.34402e-05
3.51513e-05
-1.39853e-05
3.6211e-05
-1.45547e-05
3.73475e-05
-1.51504e-05
3.85727e-05
-1.57745e-05
3.99003e-05
-1.64293e-05
4.13461e-05
-1.71172e-05
4.29287e-05
-1.78404e-05
4.4669e-05
-1.86011e-05
4.65904e-05
-1.94015e-05
4.87182e-05
-2.02431e-05
5.10796e-05
-2.11272e-05
5.37018e-05
-2.20546e-05
5.66111e-05
-2.30249e-05
5.98305e-05
-2.4037e-05
6.33769e-05
-2.50886e-05
6.72583e-05
-2.61762e-05
7.14698e-05
-2.7295e-05
7.599e-05
-2.84385e-05
8.07777e-05
-2.95993e-05
8.57687e-05
-3.07686e-05
9.08743e-05
-3.19367e-05
9.59814e-05
-3.30936e-05
0.000100955
-3.42291e-05
0.000105641
-3.53338e-05
0.000109875
-3.63998e-05
0.000113492
-3.74214e-05
0.000116334
-3.83961e-05
0.000118262
-3.93252e-05
0.000119168
-4.0214e-05
0.000118985
-4.10722e-05
0.000117686
-4.19132e-05
0.000115293
-4.27531e-05
0.000111864
0.000107491
-4.36095e-05
-1.09053e-09
1.97706e-07
-4.50295e-09
5.94064e-07
-1.04176e-08
9.97497e-07
-1.90191e-08
1.4078e-06
-3.04953e-08
1.82474e-06
-4.50375e-08
2.24807e-06
-6.28393e-08
2.67754e-06
-8.40963e-08
3.11286e-06
-1.09005e-07
3.55377e-06
-1.37763e-07
3.99994e-06
-1.70566e-07
4.45108e-06
-2.07612e-07
4.90686e-06
-2.49093e-07
5.36695e-06
-2.95201e-07
5.83102e-06
-3.46124e-07
6.29871e-06
-4.02047e-07
6.76969e-06
-4.63149e-07
7.24362e-06
-5.29603e-07
7.72014e-06
-6.01576e-07
8.19891e-06
-6.79229e-07
8.67961e-06
-7.62714e-07
9.16192e-06
-8.52177e-07
9.64551e-06
-9.47751e-07
1.01301e-05
-1.04956e-06
1.06154e-05
-1.15773e-06
1.11011e-05
-1.27236e-06
1.15871e-05
-1.39356e-06
1.20731e-05
-1.52139e-06
1.2559e-05
-1.65595e-06
1.30446e-05
-1.7973e-06
1.35298e-05
-1.9455e-06
1.40145e-05
-2.10059e-06
1.44988e-05
-2.26261e-06
1.49826e-05
-2.4316e-06
1.54661e-05
-2.60758e-06
1.59493e-05
-2.79056e-06
1.64325e-05
-2.98055e-06
1.69158e-05
-3.17757e-06
1.73996e-05
-3.38162e-06
1.78843e-05
-3.5927e-06
1.83701e-05
-3.81082e-06
1.88576e-05
-4.03598e-06
1.93474e-05
-4.26819e-06
1.984e-05
-4.50748e-06
2.03361e-05
-4.75386e-06
2.08364e-05
-5.00739e-06
2.13418e-05
-5.2681e-06
2.18531e-05
-5.53606e-06
2.23712e-05
-5.81137e-06
2.28972e-05
-6.09414e-06
2.34322e-05
-6.3845e-06
2.39774e-05
-6.68263e-06
2.4534e-05
-6.98872e-06
2.51034e-05
-7.30301e-06
2.56872e-05
-7.6258e-06
2.62869e-05
-7.95741e-06
2.69044e-05
-8.29823e-06
2.75414e-05
-8.6487e-06
2.82002e-05
-9.00935e-06
2.88831e-05
-9.38075e-06
2.95928e-05
-9.76356e-06
3.03321e-05
-1.01585e-05
3.11044e-05
-1.05665e-05
3.19137e-05
-1.09884e-05
3.27644e-05
-1.14254e-05
3.36617e-05
-1.18784e-05
3.46118e-05
-1.23488e-05
3.56217e-05
-1.28379e-05
3.67001e-05
-1.33472e-05
3.78568e-05
-1.38782e-05
3.91037e-05
-1.44324e-05
4.04545e-05
-1.50114e-05
4.19251e-05
-1.56166e-05
4.3534e-05
-1.62496e-05
4.5302e-05
-1.69114e-05
4.72522e-05
-1.76031e-05
4.94099e-05
-1.8325e-05
5.18015e-05
-1.90771e-05
5.4454e-05
-1.98589e-05
5.73929e-05
-2.06689e-05
6.06404e-05
-2.15048e-05
6.42128e-05
-2.23636e-05
6.8117e-05
-2.32412e-05
7.23474e-05
-2.41328e-05
7.68816e-05
-2.50328e-05
8.16777e-05
-2.5935e-05
8.66709e-05
-2.6833e-05
9.17723e-05
-2.77203e-05
9.68687e-05
-2.85908e-05
0.000101825
-2.94389e-05
0.000106489
-3.02608e-05
0.000110697
-3.10538e-05
0.000114285
-3.18179e-05
0.000117098
-3.25556e-05
0.000118999
-3.3272e-05
0.000119885
-3.39755e-05
0.000119688
-3.46769e-05
0.000118387
-3.53889e-05
0.000116005
-3.61255e-05
0.000112601
0.000108265
-3.69001e-05
-9.16553e-10
1.98623e-07
-3.81055e-09
5.96958e-07
-8.86025e-09
1.00255e-06
-1.62481e-08
1.41519e-06
-2.61602e-08
1.83465e-06
-3.8786e-08
2.26069e-06
-5.43174e-08
2.69307e-06
-7.29485e-08
3.1315e-06
-9.48743e-08
3.57569e-06
-1.20291e-07
4.02536e-06
-1.49394e-07
4.48019e-06
-1.82377e-07
4.93985e-06
-2.19435e-07
5.40401e-06
-2.60757e-07
5.87234e-06
-3.06532e-07
6.34449e-06
-3.56941e-07
6.8201e-06
-4.12164e-07
7.29884e-06
-4.72373e-07
7.78035e-06
-5.37734e-07
8.26428e-06
-6.08408e-07
8.75029e-06
-6.84544e-07
9.23805e-06
-7.66287e-07
9.72725e-06
-8.53771e-07
1.02176e-05
-9.47119e-07
1.07087e-05
-1.04645e-06
1.12005e-05
-1.15186e-06
1.16925e-05
-1.26345e-06
1.21847e-05
-1.38129e-06
1.26769e-05
-1.50548e-06
1.31688e-05
-1.63605e-06
1.36604e-05
-1.77307e-06
1.41515e-05
-1.91657e-06
1.46423e-05
-2.06659e-06
1.51326e-05
-2.22314e-06
1.56227e-05
-2.38624e-06
1.61124e-05
-2.55589e-06
1.66021e-05
-2.7321e-06
1.7092e-05
-2.91484e-06
1.75824e-05
-3.10412e-06
1.80735e-05
-3.2999e-06
1.85659e-05
-3.50219e-06
1.90599e-05
-3.71095e-06
1.95562e-05
-3.92618e-06
2.00552e-05
-4.14786e-06
2.05578e-05
-4.37599e-06
2.10646e-05
-4.61056e-06
2.15764e-05
-4.8516e-06
2.20941e-05
-5.09914e-06
2.26187e-05
-5.3532e-06
2.31513e-05
-5.61386e-06
2.36929e-05
-5.88121e-06
2.42447e-05
-6.15534e-06
2.48081e-05
-6.4364e-06
2.53845e-05
-6.72456e-06
2.59754e-05
-7.02003e-06
2.65824e-05
-7.32305e-06
2.72074e-05
-7.63392e-06
2.78523e-05
-7.95299e-06
2.85193e-05
-8.28065e-06
2.92108e-05
-8.61735e-06
2.99295e-05
-8.96361e-06
3.06783e-05
-9.32003e-06
3.14609e-05
-9.68724e-06
3.22809e-05
-1.0066e-05
3.31432e-05
-1.04571e-05
3.40528e-05
-1.08613e-05
3.5016e-05
-1.12797e-05
3.60401e-05
-1.17132e-05
3.71336e-05
-1.21628e-05
3.83064e-05
-1.26295e-05
3.95704e-05
-1.31142e-05
4.09392e-05
-1.36179e-05
4.24288e-05
-1.41414e-05
4.40574e-05
-1.4685e-05
4.58456e-05
-1.52492e-05
4.78164e-05
-1.58337e-05
4.99944e-05
-1.64379e-05
5.24057e-05
-1.70607e-05
5.50767e-05
-1.77001e-05
5.80323e-05
-1.83538e-05
6.12941e-05
-1.90185e-05
6.48775e-05
-1.96904e-05
6.87889e-05
-2.03651e-05
7.30221e-05
-2.10379e-05
7.75545e-05
-2.1704e-05
8.23438e-05
-2.23587e-05
8.73255e-05
-2.29976e-05
9.24112e-05
-2.36173e-05
9.74884e-05
-2.42153e-05
0.000102423
-2.47909e-05
0.000107064
-2.53446e-05
0.000111251
-2.58793e-05
0.00011482
-2.63997e-05
0.000117618
-2.69127e-05
0.000119512
-2.74272e-05
0.000120399
-2.79537e-05
0.000120215
-2.85037e-05
0.000118937
-2.90891e-05
0.00011659
-2.97212e-05
0.000113233
0.000108954
-3.04098e-05
-7.56759e-10
1.9938e-07
-3.1741e-09
5.99375e-07
-7.42765e-09
1.0068e-06
-1.36974e-08
1.42145e-06
-2.21669e-08
1.84312e-06
-3.30234e-08
2.27155e-06
-4.64563e-08
2.7065e-06
-6.26574e-08
3.1477e-06
-8.18195e-08
3.59486e-06
-1.04136e-07
4.04768e-06
-1.29801e-07
4.50585e-06
-1.59007e-07
4.96905e-06
-1.91945e-07
5.43695e-06
-2.28804e-07
5.9092e-06
-2.69768e-07
6.38545e-06
-3.1502e-07
6.86535e-06
-3.64735e-07
7.34855e-06
-4.19085e-07
7.8347e-06
-4.78234e-07
8.32342e-06
-5.42339e-07
8.81439e-06
-6.11549e-07
9.30726e-06
-6.86004e-07
9.8017e-06
-7.65837e-07
1.02974e-05
-8.51169e-07
1.07941e-05
-9.42111e-07
1.12914e-05
-1.03876e-06
1.17892e-05
-1.14121e-06
1.22872e-05
-1.24954e-06
1.27852e-05
-1.36382e-06
1.3283e-05
-1.48409e-06
1.37806e-05
-1.61041e-06
1.42779e-05
-1.7428e-06
1.47747e-05
-1.88129e-06
1.52711e-05
-2.02588e-06
1.57672e-05
-2.17658e-06
1.62631e-05
-2.33338e-06
1.67589e-05
-2.49627e-06
1.72549e-05
-2.66521e-06
1.77513e-05
-2.84018e-06
1.82485e-05
-3.02115e-06
1.87469e-05
-3.20807e-06
1.92468e-05
-3.4009e-06
1.9749e-05
-3.5996e-06
2.02539e-05
-3.80413e-06
2.07623e-05
-4.01446e-06
2.12749e-05
-4.23055e-06
2.17925e-05
-4.45237e-06
2.23159e-05
-4.67993e-06
2.28463e-05
-4.9132e-06
2.33845e-05
-5.15221e-06
2.39319e-05
-5.39699e-06
2.44895e-05
-5.64759e-06
2.50587e-05
-5.90408e-06
2.5641e-05
-6.16657e-06
2.62379e-05
-6.43518e-06
2.6851e-05
-6.71009e-06
2.74823e-05
-6.99149e-06
2.81337e-05
-7.27962e-06
2.88074e-05
-7.57478e-06
2.95059e-05
-7.87728e-06
3.0232e-05
-8.1875e-06
3.09886e-05
-8.50587e-06
3.17792e-05
-8.83287e-06
3.26079e-05
-9.16901e-06
3.34793e-05
-9.51485e-06
3.43987e-05
-9.87099e-06
3.53722e-05
-1.0238e-05
3.64072e-05
-1.06166e-05
3.75121e-05
-1.10073e-05
3.86971e-05
-1.14106e-05
3.99737e-05
-1.1827e-05
4.13556e-05
-1.22567e-05
4.28585e-05
-1.26998e-05
4.45005e-05
-1.3156e-05
4.63018e-05
-1.36246e-05
4.8285e-05
-1.41045e-05
5.04743e-05
-1.45942e-05
5.28954e-05
-1.50913e-05
5.55738e-05
-1.55929e-05
5.8534e-05
-1.60957e-05
6.17968e-05
-1.65955e-05
6.53773e-05
-1.7088e-05
6.92814e-05
-1.75684e-05
7.35025e-05
-1.80323e-05
7.80183e-05
-1.84754e-05
8.27869e-05
-1.88945e-05
8.77446e-05
-1.92872e-05
9.28039e-05
-1.9653e-05
9.78541e-05
-1.99928e-05
0.000102763
-2.03098e-05
0.000107381
-2.06094e-05
0.00011155
-2.08988e-05
0.000115109
-2.11873e-05
0.000117907
-2.14858e-05
0.000119811
-2.18063e-05
0.00012072
-2.21611e-05
0.00012057
-2.25623e-05
0.000119339
-2.30209e-05
0.000117049
-2.35456e-05
0.000113757
0.000109551
-2.41426e-05
-6.11635e-10
1.99991e-07
-2.59524e-09
6.01358e-07
-6.12362e-09
1.01033e-06
-1.13738e-08
1.42671e-06
-1.85264e-08
1.85027e-06
-2.77656e-08
2.28079e-06
-3.92779e-08
2.71801e-06
-5.32519e-08
3.16167e-06
-6.98776e-08
3.61148e-06
-8.93457e-08
4.06715e-06
-1.11847e-07
4.52835e-06
-1.3757e-07
4.99478e-06
-1.66704e-07
5.46608e-06
-1.99435e-07
5.94193e-06
-2.35944e-07
6.42196e-06
-2.76411e-07
6.90582e-06
-3.21008e-07
7.39315e-06
-3.69903e-07
7.88359e-06
-4.23258e-07
8.37678e-06
-4.81226e-07