/*--------------------------------*- C++ -*----------------------------------*\
| =========                 |                                                 |
| \\      /  F ield         | OpenFOAM: The Open Source CFD Toolbox           |
|  \\    /   O peration     | Version:  2406                                  |
|   \\  /    A nd           | Website:  www.openfoam.com                      |
|    \\/     M anipulation  |                                                 |
\*---------------------------------------------------------------------------*/
FoamFile
{
    version     2.0;
    format      ascii;
    arch        "LSB;label=32;scalar=64";
    class       volVectorField;
    location    "7";
    object      U;
}
// * * * * * * * * * * * * * * * * * * * * * * * * * * * * * * * * * * * * * //

dimensions      [0 1 -1 0 0 0 0];

internalField   nonuniform List<vector> 
40000
(
(-1.81951e-06 0.00180981 0)
(-1.18993e-05 0.00534128 0)
(-3.50302e-05 0.00881166 0)
(-7.08852e-05 0.0122189 0)
(-0.000119326 0.015561 0)
(-0.000180697 0.018836 0)
(-0.000255409 0.0220421 0)
(-0.000343835 0.0251775 0)
(-0.000446328 0.0282405 0)
(-0.000563242 0.0312294 0)
(-0.000694925 0.0341429 0)
(-0.000841723 0.0369797 0)
(-0.00100397 0.0397384 0)
(-0.001182 0.042418 0)
(-0.00137613 0.0450176 0)
(-0.00158667 0.0475363 0)
(-0.00181392 0.0499736 0)
(-0.00205817 0.0523291 0)
(-0.00231971 0.0546023 0)
(-0.00259878 0.0567934 0)
(-0.00289565 0.0589022 0)
(-0.00321056 0.0609291 0)
(-0.00354374 0.0628746 0)
(-0.0038954 0.0647394 0)
(-0.00426574 0.0665242 0)
(-0.00465497 0.0682301 0)
(-0.00506326 0.0698585 0)
(-0.00549078 0.0714107 0)
(-0.00593772 0.0728883 0)
(-0.00640421 0.0742932 0)
(-0.00689044 0.0756274 0)
(-0.00739654 0.0768931 0)
(-0.00792268 0.0780925 0)
(-0.00846901 0.0792282 0)
(-0.0090357 0.0803028 0)
(-0.00962293 0.0813191 0)
(-0.0102309 0.08228 0)
(-0.0108598 0.0831885 0)
(-0.0115098 0.0840478 0)
(-0.0121813 0.084861 0)
(-0.0128745 0.0856315 0)
(-0.0135897 0.0863625 0)
(-0.0143273 0.0870576 0)
(-0.0150877 0.08772 0)
(-0.0158713 0.0883534 0)
(-0.0166788 0.0889612 0)
(-0.0175106 0.0895468 0)
(-0.0183675 0.0901137 0)
(-0.0192503 0.0906655 0)
(-0.0201597 0.0912055 0)
(-0.0210967 0.0917372 0)
(-0.0220624 0.0922641 0)
(-0.0230581 0.0927896 0)
(-0.0240851 0.0933171 0)
(-0.0251448 0.09385 0)
(-0.026239 0.094392 0)
(-0.0273696 0.0949467 0)
(-0.0285387 0.0955178 0)
(-0.0297488 0.0961094 0)
(-0.0310025 0.0967257 0)
(-0.0323028 0.0973717 0)
(-0.0336532 0.0980526 0)
(-0.0350575 0.0987746 0)
(-0.0365203 0.0995449 0)
(-0.0380465 0.100372 0)
(-0.0396418 0.101266 0)
(-0.0413128 0.102239 0)
(-0.043067 0.103306 0)
(-0.0449132 0.104485 0)
(-0.0468612 0.105797 0)
(-0.0489224 0.107267 0)
(-0.0511099 0.108927 0)
(-0.0534385 0.110811 0)
(-0.0559249 0.112961 0)
(-0.058588 0.115424 0)
(-0.0614486 0.11825 0)
(-0.0645293 0.121496 0)
(-0.0678543 0.125217 0)
(-0.0714487 0.129468 0)
(-0.0753375 0.1343 0)
(-0.0795449 0.13975 0)
(-0.0840918 0.14584 0)
(-0.088995 0.152565 0)
(-0.0942639 0.15989 0)
(-0.0998991 0.16774 0)
(-0.105889 0.175993 0)
(-0.112209 0.184483 0)
(-0.118817 0.192993 0)
(-0.125657 0.201261 0)
(-0.132655 0.208989 0)
(-0.139722 0.215857 0)
(-0.146757 0.221533 0)
(-0.153654 0.225699 0)
(-0.1603 0.228068 0)
(-0.166592 0.228404 0)
(-0.172438 0.226541 0)
(-0.177764 0.222396 0)
(-0.182527 0.215974 0)
(-0.186712 0.20737 0)
(-0.190337 0.196756 0)
(-1.65048e-06 0.00183741 0)
(-1.09726e-05 0.00542363 0)
(-3.24696e-05 0.00894874 0)
(-6.58455e-05 0.0124107 0)
(-0.000111004 0.0158073 0)
(-0.000168307 0.0191368 0)
(-0.000238176 0.0223972 0)
(-0.000320996 0.0255866 0)
(-0.000417137 0.0287034 0)
(-0.000526968 0.0317459 0)
(-0.000650857 0.0347126 0)
(-0.000789165 0.0376022 0)
(-0.000942247 0.0404132 0)
(-0.00111045 0.0431446 0)
(-0.00129412 0.0457955 0)
(-0.00149358 0.0483649 0)
(-0.00170915 0.0508522 0)
(-0.00194115 0.0532569 0)
(-0.00218986 0.0555787 0)
(-0.00245557 0.0578173 0)
(-0.00273856 0.059973 0)
(-0.00303909 0.0620458 0)
(-0.00335739 0.0640362 0)
(-0.0036937 0.0659448 0)
(-0.00404824 0.0677726 0)
(-0.00442122 0.0695204 0)
(-0.00481283 0.0711895 0)
(-0.00522326 0.0727813 0)
(-0.00565268 0.0742976 0)
(-0.00610126 0.07574 0)
(-0.00656916 0.0771106 0)
(-0.00705655 0.0784115 0)
(-0.00756357 0.0796452 0)
(-0.00809038 0.0808141 0)
(-0.00863715 0.081921 0)
(-0.00920405 0.0829685 0)
(-0.00979125 0.0839598 0)
(-0.0103989 0.0848979 0)
(-0.0110273 0.085786 0)
(-0.0116767 0.0866273 0)
(-0.0123473 0.0874253 0)
(-0.0130393 0.0881833 0)
(-0.0137532 0.088905 0)
(-0.0144894 0.0895938 0)
(-0.0152482 0.0902533 0)
(-0.0160301 0.0908872 0)
(-0.0168357 0.091499 0)
(-0.0176657 0.0920924 0)
(-0.0185207 0.0926711 0)
(-0.0194016 0.0932386 0)
(-0.0203092 0.0937986 0)
(-0.0212446 0.0943548 0)
(-0.022209 0.0949107 0)
(-0.0232035 0.0954701 0)
(-0.0242298 0.0960366 0)
(-0.0252893 0.0966141 0)
(-0.0263839 0.0972065 0)
(-0.0275158 0.0978179 0)
(-0.0286871 0.0984527 0)
(-0.0299006 0.0991158 0)
(-0.0311591 0.0998122 0)
(-0.032466 0.100548 0)
(-0.0338249 0.10133 0)
(-0.0352403 0.102166 0)
(-0.0367169 0.103065 0)
(-0.0382604 0.104039 0)
(-0.0398769 0.1051 0)
(-0.0415738 0.106265 0)
(-0.0433592 0.107552 0)
(-0.0452428 0.108986 0)
(-0.0472352 0.110592 0)
(-0.0493487 0.112403 0)
(-0.0515972 0.114457 0)
(-0.0539963 0.116796 0)
(-0.0565631 0.119469 0)
(-0.0593167 0.122528 0)
(-0.0622773 0.12603 0)
(-0.0654665 0.130031 0)
(-0.068906 0.134585 0)
(-0.0726173 0.139739 0)
(-0.0766201 0.145528 0)
(-0.0809313 0.151965 0)
(-0.0855626 0.159039 0)
(-0.0905189 0.166703 0)
(-0.0957962 0.174869 0)
(-0.101379 0.183402 0)
(-0.107241 0.192118 0)
(-0.113338 0.200784 0)
(-0.119615 0.209125 0)
(-0.126 0.216829 0)
(-0.132411 0.223565 0)
(-0.138756 0.229 0)
(-0.144937 0.232816 0)
(-0.150858 0.234735 0)
(-0.156431 0.234538 0)
(-0.161582 0.232081 0)
(-0.166258 0.227309 0)
(-0.170432 0.220259 0)
(-0.174109 0.211057 0)
(-0.17732 0.199905 0)
(-1.51254e-06 0.0018625 0)
(-1.00976e-05 0.00549863 0)
(-2.99412e-05 0.00907379 0)
(-6.0808e-05 0.0125859 0)
(-0.00010265 0.0160328 0)
(-0.000155841 0.0194126 0)
(-0.000220812 0.0227233 0)
(-0.000297961 0.025963 0)
(-0.000387673 0.02913 0)
(-0.000490332 0.0322225 0)
(-0.000606322 0.0352391 0)
(-0.00073602 0.0381783 0)
(-0.000879799 0.0410387 0)
(-0.00103803 0.0438191 0)
(-0.00121106 0.0465186 0)
(-0.00139924 0.0491362 0)
(-0.00160292 0.0516711 0)
(-0.00182242 0.0541228 0)
(-0.00205805 0.056491 0)
(-0.00231012 0.0587754 0)
(-0.00257891 0.060976 0)
(-0.00286471 0.063093 0)
(-0.00316776 0.0651267 0)
(-0.00348833 0.0670778 0)
(-0.00382663 0.068947 0)
(-0.0041829 0.0707354 0)
(-0.00455733 0.0724441 0)
(-0.00495012 0.0740745 0)
(-0.00536145 0.0756283 0)
(-0.0057915 0.0771072 0)
(-0.00624043 0.0785132 0)
(-0.0067084 0.0798486 0)
(-0.00719555 0.0811156 0)
(-0.00770206 0.0823169 0)
(-0.00822806 0.0834552 0)
(-0.00877372 0.0845333 0)
(-0.0093392 0.0855542 0)
(-0.00992469 0.086521 0)
(-0.0105304 0.087437 0)
(-0.0111564 0.0883056 0)
(-0.0118032 0.0891302 0)
(-0.0124708 0.0899144 0)
(-0.0131597 0.0906617 0)
(-0.0138701 0.0913758 0)
(-0.0146025 0.0920604 0)
(-0.0153572 0.0927193 0)
(-0.0161349 0.0933561 0)
(-0.0169361 0.0939748 0)
(-0.0177614 0.0945791 0)
(-0.0186116 0.0951727 0)
(-0.0194875 0.0957594 0)
(-0.0203901 0.0963432 0)
(-0.0213205 0.0969279 0)
(-0.0222799 0.0975173 0)
(-0.0232696 0.0981154 0)
(-0.0242912 0.0987263 0)
(-0.0253464 0.0993542 0)
(-0.0264372 0.100004 0)
(-0.0275658 0.100679 0)
(-0.0287347 0.101386 0)
(-0.0299466 0.10213 0)
(-0.0312047 0.102918 0)
(-0.0325127 0.103756 0)
(-0.0338746 0.104654 0)
(-0.0352949 0.105621 0)
(-0.0367791 0.10667 0)
(-0.038333 0.107814 0)
(-0.0399635 0.109071 0)
(-0.0416784 0.110461 0)
(-0.0434864 0.112007 0)
(-0.0453977 0.11374 0)
(-0.0474235 0.115693 0)
(-0.0495765 0.117904 0)
(-0.0518709 0.120418 0)
(-0.0543221 0.123284 0)
(-0.056947 0.126557 0)
(-0.0597634 0.130291 0)
(-0.0627898 0.134544 0)
(-0.0660446 0.139368 0)
(-0.0695457 0.144808 0)
(-0.0733086 0.150893 0)
(-0.0773458 0.157632 0)
(-0.081665 0.165004 0)
(-0.0862671 0.172953 0)
(-0.0911445 0.181379 0)
(-0.0962799 0.190134 0)
(-0.101644 0.19902 0)
(-0.107196 0.207791 0)
(-0.112881 0.216158 0)
(-0.118633 0.223801 0)
(-0.124379 0.230383 0)
(-0.130035 0.235567 0)
(-0.135516 0.239041 0)
(-0.140743 0.240538 0)
(-0.145643 0.239853 0)
(-0.150159 0.236867 0)
(-0.154256 0.23155 0)
(-0.157923 0.223968 0)
(-0.161177 0.214275 0)
(-0.16406 0.202695 0)
(-1.37589e-06 0.00188511 0)
(-9.22492e-06 0.00556643 0)
(-2.74143e-05 0.00918708 0)
(-5.57698e-05 0.0127449 0)
(-9.42901e-05 0.0162379 0)
(-0.000143361 0.0196639 0)
(-0.000203423 0.023021 0)
(-0.000274883 0.0263072 0)
(-0.000358141 0.0295208 0)
(-0.000453595 0.03266 0)
(-0.000561643 0.0357233 0)
(-0.000682679 0.038709 0)
(-0.000817091 0.0416158 0)
(-0.000965263 0.0444425 0)
(-0.00112757 0.0471879 0)
(-0.00130437 0.0498511 0)
(-0.00149603 0.0524313 0)
(-0.00170288 0.0549279 0)
(-0.00192527 0.0573403 0)
(-0.0021635 0.0596685 0)
(-0.00241789 0.0619122 0)
(-0.00268872 0.0640716 0)
(-0.00297627 0.0661471 0)
(-0.0032808 0.0681391 0)
(-0.00360255 0.0700484 0)
(-0.00394175 0.071876 0)
(-0.00429862 0.073623 0)
(-0.00467336 0.0752908 0)
(-0.00506615 0.0768809 0)
(-0.00547718 0.0783952 0)
(-0.0059066 0.0798357 0)
(-0.00635458 0.0812045 0)
(-0.00682126 0.082504 0)
(-0.00730679 0.0837368 0)
(-0.00781132 0.0849056 0)
(-0.00833498 0.0860132 0)
(-0.00887794 0.0870628 0)
(-0.00944034 0.0880575 0)
(-0.0100224 0.0890005 0)
(-0.0106242 0.0898955 0)
(-0.011246 0.0907457 0)
(-0.0118881 0.0915549 0)
(-0.0125507 0.0923268 0)
(-0.0132341 0.0930651 0)
(-0.0139386 0.0937737 0)
(-0.0146648 0.0944563 0)
(-0.0154129 0.0951169 0)
(-0.0161836 0.0957594 0)
(-0.0169773 0.0963877 0)
(-0.0177949 0.0970057 0)
(-0.0186371 0.0976176 0)
(-0.0195047 0.0982272 0)
(-0.0203987 0.0988386 0)
(-0.0213203 0.099456 0)
(-0.0222708 0.100083 0)
(-0.0232515 0.100725 0)
(-0.0242641 0.101386 0)
(-0.0253104 0.102071 0)
(-0.0263925 0.102784 0)
(-0.0275127 0.103532 0)
(-0.0286736 0.10432 0)
(-0.0298783 0.105156 0)
(-0.0311301 0.106047 0)
(-0.0324328 0.107002 0)
(-0.0337907 0.108032 0)
(-0.0352087 0.109151 0)
(-0.0366925 0.110372 0)
(-0.0382484 0.111714 0)
(-0.0398835 0.113198 0)
(-0.0416058 0.11485 0)
(-0.0434247 0.116699 0)
(-0.0453502 0.118781 0)
(-0.0473937 0.121135 0)
(-0.0495677 0.123807 0)
(-0.0518859 0.126848 0)
(-0.0543627 0.130311 0)
(-0.0570133 0.134252 0)
(-0.0598531 0.138728 0)
(-0.0628973 0.143788 0)
(-0.0661598 0.149475 0)
(-0.0696525 0.155814 0)
(-0.0733838 0.162808 0)
(-0.0773577 0.170428 0)
(-0.0815717 0.178609 0)
(-0.0860159 0.187242 0)
(-0.0906717 0.196166 0)
(-0.09551 0.205174 0)
(-0.100492 0.214006 0)
(-0.105567 0.222365 0)
(-0.110678 0.229923 0)
(-0.115757 0.236339 0)
(-0.120735 0.241277 0)
(-0.12554 0.244431 0)
(-0.130106 0.245544 0)
(-0.134378 0.244429 0)
(-0.138315 0.240986 0)
(-0.141897 0.235211 0)
(-0.145125 0.227194 0)
(-0.148026 0.217112 0)
(-0.150649 0.205209 0)
(-1.24037e-06 0.00190534 0)
(-8.35936e-06 0.00562728 0)
(-2.49076e-05 0.00928901 0)
(-5.07697e-05 0.0128884 0)
(-8.59906e-05 0.0164232 0)
(-0.000130967 0.0198915 0)
(-0.000186144 0.0232912 0)
(-0.000251942 0.0266203 0)
(-0.00032877 0.0298771 0)
(-0.000417042 0.0330596 0)
(-0.000517167 0.0361662 0)
(-0.000629553 0.0391955 0)
(-0.000754604 0.0421458 0)
(-0.000892717 0.0450159 0)
(-0.00104428 0.0478047 0)
(-0.00120968 0.0505111 0)
(-0.00138928 0.0531342 0)
(-0.00158344 0.0556733 0)
(-0.00179251 0.058128 0)
(-0.00201682 0.0604979 0)
(-0.0022567 0.0627829 0)
(-0.00251243 0.064983 0)
(-0.00278432 0.0670985 0)
(-0.00307264 0.0691299 0)
(-0.00337763 0.0710778 0)
(-0.00369954 0.0729432 0)
(-0.00403858 0.0747272 0)
(-0.00439498 0.0764311 0)
(-0.0047689 0.0780565 0)
(-0.00516055 0.0796051 0)
(-0.00557007 0.0810789 0)
(-0.00599762 0.0824801 0)
(-0.00644334 0.0838111 0)
(-0.00690738 0.0850743 0)
(-0.00738986 0.0862726 0)
(-0.00789091 0.0874089 0)
(-0.00841066 0.0884861 0)
(-0.00894926 0.0895076 0)
(-0.00950683 0.0904767 0)
(-0.0100836 0.0913969 0)
(-0.0106796 0.0922717 0)
(-0.0112951 0.0931049 0)
(-0.0119304 0.0939002 0)
(-0.0125857 0.0946614 0)
(-0.0132612 0.0953926 0)
(-0.0139574 0.0960976 0)
(-0.0146746 0.0967804 0)
(-0.0154132 0.0974451 0)
(-0.0161739 0.0980958 0)
(-0.0169572 0.0987366 0)
(-0.0177637 0.0993716 0)
(-0.0185943 0.100005 0)
(-0.0194499 0.100641 0)
(-0.0203314 0.101284 0)
(-0.0212401 0.101938 0)
(-0.0221772 0.102609 0)
(-0.0231443 0.1033 0)
(-0.024143 0.104017 0)
(-0.0251752 0.104764 0)
(-0.0262431 0.105549 0)
(-0.0273491 0.106378 0)
(-0.028496 0.107258 0)
(-0.0296868 0.108196 0)
(-0.0309252 0.109204 0)
(-0.032215 0.110292 0)
(-0.0335608 0.111474 0)
(-0.0349677 0.112765 0)
(-0.0364414 0.114184 0)
(-0.0379884 0.115754 0)
(-0.039616 0.117501 0)
(-0.0413322 0.119455 0)
(-0.0431461 0.121653 0)
(-0.0450676 0.124135 0)
(-0.0471075 0.126948 0)
(-0.0492772 0.130142 0)
(-0.051589 0.133772 0)
(-0.0540552 0.137893 0)
(-0.0566882 0.14256 0)
(-0.0594997 0.147822 0)
(-0.0625001 0.153717 0)
(-0.0656975 0.160267 0)
(-0.069097 0.167469 0)
(-0.072699 0.175289 0)
(-0.0764987 0.183653 0)
(-0.0804846 0.192443 0)
(-0.0846376 0.20149 0)
(-0.0889304 0.210576 0)
(-0.0933272 0.219434 0)
(-0.0977841 0.227759 0)
(-0.10225 0.235218 0)
(-0.10667 0.241468 0)
(-0.110984 0.246176 0)
(-0.115137 0.249042 0)
(-0.119077 0.249819 0)
(-0.122764 0.248337 0)
(-0.126171 0.244515 0)
(-0.129291 0.238369 0)
(-0.132135 0.230011 0)
(-0.134736 0.219636 0)
(-0.137144 0.207503 0)
(-1.10739e-06 0.00192329 0)
(-7.50792e-06 0.00568146 0)
(-2.24396e-05 0.00938002 0)
(-4.58448e-05 0.0130168 0)
(-7.78124e-05 0.0165896 0)
(-0.000118748 0.0200963 0)
(-0.000169104 0.023535 0)
(-0.000229307 0.0269035 0)
(-0.000299779 0.0301999 0)
(-0.000380944 0.0334225 0)
(-0.000473223 0.0365695 0)
(-0.000577036 0.0396392 0)
(-0.000692801 0.0426302 0)
(-0.000820927 0.0455411 0)
(-0.000961817 0.0483706 0)
(-0.00111587 0.0511177 0)
(-0.00128346 0.0537814 0)
(-0.00146496 0.0563609 0)
(-0.00166075 0.0588558 0)
(-0.00187115 0.0612654 0)
(-0.00209651 0.0635898 0)
(-0.00233713 0.0658288 0)
(-0.00259332 0.0679826 0)
(-0.00286535 0.0700518 0)
(-0.0031535 0.0720368 0)
(-0.003458 0.0739386 0)
(-0.00377909 0.0757582 0)
(-0.00411696 0.077497 0)
(-0.00447183 0.0791563 0)
(-0.00484385 0.0807381 0)
(-0.0052332 0.0822441 0)
(-0.00564002 0.0836765 0)
(-0.00606444 0.0850378 0)
(-0.0065066 0.0863305 0)
(-0.0069666 0.0875572 0)
(-0.00744457 0.088721 0)
(-0.0079406 0.0898249 0)
(-0.00845482 0.0908721 0)
(-0.00898733 0.0918661 0)
(-0.00953826 0.0928104 0)
(-0.0101077 0.0937086 0)
(-0.0106959 0.0945645 0)
(-0.011303 0.0953819 0)
(-0.0119292 0.0961648 0)
(-0.0125747 0.0969171 0)
(-0.0132398 0.0976429 0)
(-0.0139249 0.0983464 0)
(-0.0146303 0.0990316 0)
(-0.0153564 0.0997029 0)
(-0.0161039 0.100364 0)
(-0.0168732 0.101021 0)
(-0.017665 0.101676 0)
(-0.0184802 0.102334 0)
(-0.0193197 0.103 0)
(-0.0201844 0.103679 0)
(-0.0210756 0.104375 0)
(-0.0219946 0.105093 0)
(-0.0229429 0.105838 0)
(-0.0239223 0.106617 0)
(-0.0249346 0.107436 0)
(-0.0259821 0.108301 0)
(-0.0270673 0.109219 0)
(-0.028193 0.110201 0)
(-0.0293625 0.111256 0)
(-0.0305792 0.112396 0)
(-0.0318472 0.113634 0)
(-0.0331711 0.114988 0)
(-0.034556 0.116477 0)
(-0.0360077 0.118123 0)
(-0.0375324 0.119953 0)
(-0.0391372 0.122 0)
(-0.0408297 0.1243 0)
(-0.0426184 0.126894 0)
(-0.0445121 0.129829 0)
(-0.0465204 0.133155 0)
(-0.0486528 0.136927 0)
(-0.050919 0.1412 0)
(-0.0533284 0.146026 0)
(-0.0558893 0.151454 0)
(-0.0586086 0.157518 0)
(-0.0614911 0.164237 0)
(-0.0645386 0.171603 0)
(-0.0677488 0.179576 0)
(-0.0711149 0.188077 0)
(-0.0746246 0.196979 0)
(-0.0782595 0.206107 0)
(-0.0819946 0.215235 0)
(-0.0857986 0.224091 0)
(-0.0896342 0.232363 0)
(-0.0934595 0.239718 0)
(-0.0972295 0.24581 0)
(-0.100899 0.250311 0)
(-0.104424 0.252928 0)
(-0.10777 0.253424 0)
(-0.110909 0.251642 0)
(-0.113827 0.247519 0)
(-0.116526 0.241087 0)
(-0.119027 0.232476 0)
(-0.121364 0.221895 0)
(-0.123585 0.209612 0)
(-9.77542e-07 0.00193906 0)
(-6.67635e-06 0.00572927 0)
(-2.00284e-05 0.00946061 0)
(-4.10316e-05 0.0131309 0)
(-6.98164e-05 0.0167378 0)
(-0.000106797 0.0202794 0)
(-0.000152429 0.0237534 0)
(-0.000207147 0.0271578 0)
(-0.000271382 0.0304907 0)
(-0.000345568 0.0337502 0)
(-0.000430136 0.0369345 0)
(-0.000525517 0.0400419 0)
(-0.000632139 0.0430708 0)
(-0.000750422 0.0460198 0)
(-0.000880781 0.0488875 0)
(-0.00102362 0.0516729 0)
(-0.00117934 0.0543749 0)
(-0.00134832 0.0569926 0)
(-0.00153094 0.0595255 0)
(-0.00172754 0.061973 0)
(-0.00193848 0.0643348 0)
(-0.00216407 0.0666109 0)
(-0.00240463 0.0688014 0)
(-0.00266044 0.0709067 0)
(-0.00293177 0.0729273 0)
(-0.00321887 0.074864 0)
(-0.00352197 0.0767179 0)
(-0.00384129 0.0784901 0)
(-0.00417702 0.0801821 0)
(-0.00452932 0.0817957 0)
(-0.00489836 0.0833327 0)
(-0.00528428 0.0847953 0)
(-0.0056872 0.0861857 0)
(-0.00610723 0.0875066 0)
(-0.00654448 0.0887607 0)
(-0.00699903 0.0899508 0)
(-0.00747097 0.0910802 0)
(-0.00796039 0.092152 0)
(-0.00846736 0.0931697 0)
(-0.00899199 0.0941369 0)
(-0.00953435 0.0950572 0)
(-0.0100946 0.0959345 0)
(-0.0106728 0.0967726 0)
(-0.0112691 0.0975756 0)
(-0.0118837 0.0983476 0)
(-0.0125169 0.0990927 0)
(-0.0131688 0.0998151 0)
(-0.0138398 0.100519 0)
(-0.0145303 0.101209 0)
(-0.0152406 0.101889 0)
(-0.0159713 0.102564 0)
(-0.0167229 0.103239 0)
(-0.0174961 0.103917 0)
(-0.0182917 0.104603 0)
(-0.0191106 0.105303 0)
(-0.0199538 0.106022 0)
(-0.0208225 0.106764 0)
(-0.021718 0.107535 0)
(-0.0226419 0.108341 0)
(-0.0235958 0.109189 0)
(-0.0245817 0.110085 0)
(-0.0256019 0.111039 0)
(-0.0266589 0.112058 0)
(-0.0277554 0.113155 0)
(-0.0288946 0.11434 0)
(-0.0300801 0.115628 0)
(-0.0313159 0.117036 0)
(-0.0326063 0.118585 0)
(-0.0339563 0.120297 0)
(-0.0353712 0.122201 0)
(-0.036857 0.124328 0)
(-0.0384198 0.126714 0)
(-0.0400666 0.129403 0)
(-0.0418044 0.13244 0)
(-0.0436404 0.135876 0)
(-0.0455818 0.139765 0)
(-0.0476356 0.144161 0)
(-0.049808 0.149116 0)
(-0.0521043 0.154675 0)
(-0.0545282 0.160871 0)
(-0.0570811 0.167718 0)
(-0.059762 0.175205 0)
(-0.0625664 0.183287 0)
(-0.065486 0.191881 0)
(-0.0685084 0.200854 0)
(-0.0716162 0.210026 0)
(-0.0747878 0.219165 0)
(-0.077997 0.227996 0)
(-0.0812139 0.236205 0)
(-0.0844059 0.243455 0)
(-0.0875392 0.249405 0)
(-0.0905812 0.253728 0)
(-0.0935028 0.256138 0)
(-0.0962809 0.25641 0)
(-0.0989016 0.254397 0)
(-0.101362 0.250048 0)
(-0.103674 0.243411 0)
(-0.105859 0.234628 0)
(-0.107954 0.223919 0)
(-0.110003 0.211557 0)
(-8.51988e-07 0.00195277 0)
(-5.87114e-06 0.00577105 0)
(-1.7692e-05 0.00953131 0)
(-3.6365e-05 0.0132313 0)
(-6.20607e-05 0.0168688 0)
(-9.51996e-05 0.0204417 0)
(-0.000136239 0.0239477 0)
(-0.000185622 0.0273848 0)
(-0.000243786 0.0307511 0)
(-0.000311172 0.0340444 0)
(-0.000388219 0.0372631 0)
(-0.000475369 0.0404053 0)
(-0.000573056 0.0434694 0)
(-0.000681711 0.046454 0)
(-0.000801759 0.0493575 0)
(-0.000933615 0.0521788 0)
(-0.00107768 0.0549168 0)
(-0.00123436 0.0575706 0)
(-0.00140402 0.0601394 0)
(-0.00158704 0.0626227 0)
(-0.00178375 0.0650202 0)
(-0.0019945 0.0673316 0)
(-0.0022196 0.0695571 0)
(-0.00245934 0.0716968 0)
(-0.002714 0.0737515 0)
(-0.00298382 0.0757216 0)
(-0.00326905 0.0776082 0)
(-0.00356989 0.0794125 0)
(-0.00388653 0.0811359 0)
(-0.00421914 0.08278 0)
(-0.00456787 0.0843467 0)
(-0.00493285 0.0858382 0)
(-0.0053142 0.0872566 0)
(-0.005712 0.0886045 0)
(-0.00612635 0.0898847 0)
(-0.0065573 0.0911 0)
(-0.00700493 0.0922536 0)
(-0.00746928 0.0933488 0)
(-0.0079504 0.094389 0)
(-0.00844834 0.0953777 0)
(-0.00896316 0.0963188 0)
(-0.00949492 0.097216 0)
(-0.0100437 0.0980734 0)
(-0.0106096 0.0988951 0)
(-0.0111927 0.0996851 0)
(-0.0117931 0.100448 0)
(-0.0124111 0.101187 0)
(-0.0130469 0.101908 0)
(-0.0137007 0.102615 0)
(-0.0143729 0.103312 0)
(-0.0150638 0.104003 0)
(-0.0157739 0.104694 0)
(-0.0165038 0.10539 0)
(-0.0172541 0.106094 0)
(-0.0180256 0.106813 0)
(-0.018819 0.10755 0)
(-0.0196355 0.108313 0)
(-0.0204762 0.109106 0)
(-0.0213423 0.109935 0)
(-0.0222354 0.110808 0)
(-0.0231572 0.111732 0)
(-0.0241095 0.112715 0)
(-0.0250946 0.113767 0)
(-0.0261148 0.114898 0)
(-0.0271728 0.116122 0)
(-0.0282718 0.117452 0)
(-0.029415 0.118907 0)
(-0.0306061 0.120507 0)
(-0.0318492 0.122275 0)
(-0.0331487 0.12424 0)
(-0.0345092 0.126433 0)
(-0.0359356 0.128892 0)
(-0.0374332 0.131658 0)
(-0.0390071 0.134778 0)
(-0.0406623 0.138302 0)
(-0.0424038 0.142283 0)
(-0.0442356 0.146775 0)
(-0.0461613 0.151826 0)
(-0.048183 0.157482 0)
(-0.0503012 0.163772 0)
(-0.0525146 0.170708 0)
(-0.0548196 0.178276 0)
(-0.0572096 0.186427 0)
(-0.0596756 0.195073 0)
(-0.062205 0.20408 0)
(-0.0647827 0.213263 0)
(-0.0673904 0.222388 0)
(-0.0700075 0.231176 0)
(-0.0726118 0.239315 0)
(-0.0751804 0.246466 0)
(-0.0776908 0.252292 0)
(-0.0801229 0.256469 0)
(-0.0824607 0.258719 0)
(-0.084694 0.258822 0)
(-0.0868204 0.256644 0)
(-0.0888469 0.252143 0)
(-0.0907901 0.245377 0)
(-0.0926763 0.236496 0)
(-0.0945395 0.225726 0)
(-0.0964187 0.213344 0)
(-7.31585e-07 0.00196454 0)
(-5.09781e-06 0.00580717 0)
(-1.54465e-05 0.00959272 0)
(-3.18783e-05 0.013319 0)
(-5.46004e-05 0.0169836 0)
(-8.40387e-05 0.0205844 0)
(-0.000120652 0.0241193 0)
(-0.000164888 0.027586 0)
(-0.000217188 0.0309826 0)
(-0.000278001 0.0343069 0)
(-0.000347772 0.0375572 0)
(-0.00042695 0.0407316 0)
(-0.000515975 0.0438283 0)
(-0.000615287 0.0468459 0)
(-0.000725315 0.0497828 0)
(-0.000846484 0.0526377 0)
(-0.000979206 0.0554096 0)
(-0.00112388 0.0580973 0)
(-0.00128089 0.0607 0)
(-0.00145062 0.0632172 0)
(-0.00163342 0.0656484 0)
(-0.00182961 0.0679934 0)
(-0.00203953 0.0702521 0)
(-0.00226348 0.0724247 0)
(-0.00250171 0.0745117 0)
(-0.0027545 0.0765138 0)
(-0.00302207 0.0784317 0)
(-0.00330463 0.0802667 0)
(-0.00360236 0.08202 0)
(-0.00391543 0.0836934 0)
(-0.00424398 0.0852885 0)
(-0.00458812 0.0868074 0)
(-0.00494796 0.0882525 0)
(-0.00532357 0.0896262 0)
(-0.00571501 0.0909312 0)
(-0.00612233 0.0921705 0)
(-0.00654556 0.093347 0)
(-0.00698472 0.0944642 0)
(-0.00743982 0.0955255 0)
(-0.00791088 0.0965345 0)
(-0.0083979 0.0974949 0)
(-0.00890089 0.0984107 0)
(-0.00941988 0.0992858 0)
(-0.00995489 0.100124 0)
(-0.010506 0.100931 0)
(-0.0110732 0.101709 0)
(-0.0116567 0.102464 0)
(-0.0122565 0.1032 0)
(-0.0128729 0.103921 0)
(-0.0135061 0.104632 0)
(-0.0141563 0.105338 0)
(-0.014824 0.106044 0)
(-0.0155094 0.106754 0)
(-0.0162132 0.107473 0)
(-0.016936 0.108207 0)
(-0.0176783 0.108961 0)
(-0.0184411 0.10974 0)
(-0.0192252 0.110551 0)
(-0.0200318 0.111399 0)
(-0.0208621 0.112293 0)
(-0.0217175 0.113239 0)
(-0.0225996 0.114247 0)
(-0.0235102 0.115325 0)
(-0.0244513 0.116486 0)
(-0.0254252 0.117741 0)
(-0.0264343 0.119107 0)
(-0.0274814 0.1206 0)
(-0.0285693 0.122241 0)
(-0.0297014 0.124055 0)
(-0.0308808 0.126068 0)
(-0.0321112 0.128315 0)
(-0.033396 0.13083 0)
(-0.0347387 0.133657 0)
(-0.0361428 0.13684 0)
(-0.0376111 0.14043 0)
(-0.0391461 0.144479 0)
(-0.0407495 0.149039 0)
(-0.0424218 0.154158 0)
(-0.0441623 0.159878 0)
(-0.0459688 0.166227 0)
(-0.0478372 0.173215 0)
(-0.0497614 0.180825 0)
(-0.0517335 0.189006 0)
(-0.0537436 0.197669 0)
(-0.0557798 0.206675 0)
(-0.0578289 0.21584 0)
(-0.0598766 0.224928 0)
(-0.061908 0.233661 0)
(-0.0639088 0.241725 0)
(-0.0658655 0.248786 0)
(-0.0677669 0.254508 0)
(-0.069605 0.258573 0)
(-0.0713761 0.260707 0)
(-0.0730821 0.260698 0)
(-0.0747311 0.258418 0)
(-0.0763382 0.253833 0)
(-0.077925 0.247006 0)
(-0.079519 0.238094 0)
(-0.0811513 0.227324 0)
(-0.0828542 0.214972 0)
(-6.17074e-07 0.00197452 0)
(-4.36167e-06 0.00583799 0)
(-1.3308e-05 0.00964546 0)
(-2.76031e-05 0.0133946 0)
(-4.74883e-05 0.0170832 0)
(-7.33932e-05 0.0207089 0)
(-0.000105777 0.0242696 0)
(-0.000145088 0.027763 0)
(-0.000191776 0.031187 0)
(-0.000246289 0.0345397 0)
(-0.000309081 0.0378189 0)
(-0.000380602 0.0410228 0)
(-0.000461299 0.0441498 0)
(-0.000551616 0.047198 0)
(-0.000651989 0.0501659 0)
(-0.000762844 0.0530523 0)
(-0.0008846 0.0558558 0)
(-0.00101766 0.0585753 0)
(-0.00116242 0.06121 0)
(-0.00131925 0.0637592 0)
(-0.00148852 0.0662223 0)
(-0.00167055 0.068599 0)
(-0.00186568 0.0708892 0)
(-0.0020742 0.0730931 0)
(-0.00229638 0.0752109 0)
(-0.00253248 0.0772433 0)
(-0.00278273 0.079191 0)
(-0.00304732 0.0810552 0)
(-0.00332644 0.0828371 0)
(-0.00362025 0.0845382 0)
(-0.00392886 0.0861604 0)
(-0.00425239 0.0877056 0)
(-0.00459092 0.089176 0)
(-0.0049445 0.0905741 0)
(-0.00531317 0.0919026 0)
(-0.00569696 0.0931645 0)
(-0.00609586 0.0943627 0)
(-0.00650985 0.0955005 0)
(-0.00693893 0.0965815 0)
(-0.00738304 0.0976093 0)
(-0.00784216 0.0985876 0)
(-0.00831624 0.0995203 0)
(-0.00880524 0.100412 0)
(-0.00930914 0.101266 0)
(-0.00982791 0.102087 0)
(-0.0103615 0.102879 0)
(-0.0109101 0.103647 0)
(-0.0114735 0.104396 0)
(-0.012052 0.105129 0)
(-0.0126456 0.105853 0)
(-0.0132544 0.10657 0)
(-0.0138788 0.107288 0)
(-0.014519 0.108009 0)
(-0.0151754 0.108741 0)
(-0.0158484 0.109487 0)
(-0.0165384 0.110253 0)
(-0.0172462 0.111046 0)
(-0.0179725 0.111871 0)
(-0.0187181 0.112735 0)
(-0.019484 0.113645 0)
(-0.0202714 0.114609 0)
(-0.0210814 0.115635 0)
(-0.0219155 0.116735 0)
(-0.0227754 0.117918 0)
(-0.0236627 0.119198 0)
(-0.0245794 0.120591 0)
(-0.0255276 0.122114 0)
(-0.0265094 0.123788 0)
(-0.0275272 0.125636 0)
(-0.0285833 0.127687 0)
(-0.0296799 0.129973 0)
(-0.0308192 0.132531 0)
(-0.0320033 0.135401 0)
(-0.0332335 0.138629 0)
(-0.0345108 0.142264 0)
(-0.0358353 0.146357 0)
(-0.0372063 0.150959 0)
(-0.0386216 0.156116 0)
(-0.0400779 0.161869 0)
(-0.0415701 0.168244 0)
(-0.0430917 0.175249 0)
(-0.0446347 0.182866 0)
(-0.0461897 0.191042 0)
(-0.0477462 0.199687 0)
(-0.0492931 0.208663 0)
(-0.0508193 0.217783 0)
(-0.0523146 0.226815 0)
(-0.0537698 0.235481 0)
(-0.0551782 0.243469 0)
(-0.0565356 0.25045 0)
(-0.0578415 0.256089 0)
(-0.0590996 0.260075 0)
(-0.0603178 0.262137 0)
(-0.0615093 0.262068 0)
(-0.0626918 0.259746 0)
(-0.0638873 0.255139 0)
(-0.0651217 0.248315 0)
(-0.0664224 0.23943 0)
(-0.0678172 0.228712 0)
(-0.0693314 0.216434 0)
(-5.09305e-07 0.00198282 0)
(-3.6679e-06 0.00586394 0)
(-1.12911e-05 0.00969019 0)
(-2.35688e-05 0.0134592 0)
(-4.07733e-05 0.0171688 0)
(-6.33366e-05 0.0208165 0)
(-9.17161e-05 0.0244002 0)
(-0.000126362 0.0279175 0)
(-0.000167725 0.0313664 0)
(-0.000216258 0.0347446 0)
(-0.000272415 0.0380503 0)
(-0.000336649 0.0412814 0)
(-0.000409411 0.0444361 0)
(-0.000491145 0.0475127 0)
(-0.000582291 0.0505095 0)
(-0.000683278 0.0534251 0)
(-0.000794527 0.0562582 0)
(-0.000916446 0.0590076 0)
(-0.00104943 0.0616723 0)
(-0.00119385 0.0642516 0)
(-0.00135006 0.0667447 0)
(-0.00151842 0.0691514 0)
(-0.00169924 0.0714715 0)
(-0.00189281 0.0737049 0)
(-0.0020994 0.0758519 0)
(-0.00231928 0.0779131 0)
(-0.00255265 0.0798891 0)
(-0.00279971 0.081781 0)
(-0.00306064 0.08359 0)
(-0.00333558 0.0853175 0)
(-0.00362463 0.0869653 0)
(-0.0039279 0.0885353 0)
(-0.00424544 0.0900297 0)
(-0.00457729 0.0914509 0)
(-0.00492346 0.0928016 0)
(-0.00528394 0.0940846 0)
(-0.00565871 0.095303 0)
(-0.00604771 0.0964601 0)
(-0.00645088 0.0975594 0)
(-0.00686815 0.0986044 0)
(-0.00729941 0.099599 0)
(-0.00774459 0.100547 0)
(-0.00820357 0.101453 0)
(-0.00867627 0.102321 0)
(-0.00916259 0.103154 0)
(-0.00966245 0.103959 0)
(-0.0101758 0.104738 0)
(-0.0107025 0.105498 0)
(-0.0112427 0.106241 0)
(-0.0117963 0.106975 0)
(-0.0123634 0.107702 0)
(-0.012944 0.108428 0)
(-0.0135384 0.109159 0)
(-0.0141466 0.109899 0)
(-0.0147691 0.110655 0)
(-0.0154061 0.111431 0)
(-0.016058 0.112233 0)
(-0.0167255 0.113068 0)
(-0.017409 0.113943 0)
(-0.0181093 0.114865 0)
(-0.0188273 0.115842 0)
(-0.0195639 0.116882 0)
(-0.02032 0.117997 0)
(-0.021097 0.119197 0)
(-0.021896 0.120495 0)
(-0.0227185 0.121908 0)
(-0.0235658 0.123452 0)
(-0.0244394 0.125149 0)
(-0.0253407 0.127022 0)
(-0.026271 0.129099 0)
(-0.0272315 0.131412 0)
(-0.0282231 0.133997 0)
(-0.029246 0.136894 0)
(-0.0303 0.140149 0)
(-0.0313842 0.143808 0)
(-0.0324964 0.147923 0)
(-0.0336335 0.152541 0)
(-0.034791 0.15771 0)
(-0.0359629 0.163466 0)
(-0.0371416 0.169836 0)
(-0.0383185 0.176826 0)
(-0.0394834 0.184417 0)
(-0.0406258 0.192556 0)
(-0.0417347 0.201152 0)
(-0.0428 0.210068 0)
(-0.0438127 0.219121 0)
(-0.0447663 0.228079 0)
(-0.0456572 0.236668 0)
(-0.0464859 0.244581 0)
(-0.0472572 0.251491 0)
(-0.0479807 0.257069 0)
(-0.0486711 0.261006 0)
(-0.0493473 0.263037 0)
(-0.0500329 0.262957 0)
(-0.0507544 0.260647 0)
(-0.0515404 0.256076 0)
(-0.0524198 0.249312 0)
(-0.0534203 0.240507 0)
(-0.0545657 0.229887 0)
(-0.0558743 0.217719 0)
(-4.09075e-07 0.00198961 0)
(-3.02131e-06 0.00588542 0)
(-9.40951e-06 0.00972756 0)
(-1.98029e-05 0.0135137 0)
(-3.45016e-05 0.0172414 0)
(-5.39381e-05 0.0209085 0)
(-7.85674e-05 0.0245125 0)
(-0.000108839 0.0280513 0)
(-0.000145204 0.0315225 0)
(-0.000188116 0.034924 0)
(-0.000238029 0.0382538 0)
(-0.000295397 0.0415097 0)
(-0.000360669 0.04469 0)
(-0.000434293 0.0477927 0)
(-0.000516706 0.0508163 0)
(-0.00060834 0.0537591 0)
(-0.000709613 0.0566198 0)
(-0.000820932 0.0593971 0)
(-0.000942691 0.0620899 0)
(-0.00107526 0.0646974 0)
(-0.00121901 0.0672189 0)
(-0.00137426 0.0696538 0)
(-0.00154134 0.072002 0)
(-0.00172054 0.0742633 0)
(-0.00191213 0.0764379 0)
(-0.00211633 0.0785263 0)
(-0.00233339 0.0805292 0)
(-0.00256346 0.0824473 0)
(-0.00280673 0.0842819 0)
(-0.0030633 0.0860343 0)
(-0.00333329 0.0877063 0)
(-0.00361677 0.0892997 0)
(-0.00391377 0.0908166 0)
(-0.0042243 0.0922595 0)
(-0.00454837 0.0936309 0)
(-0.00488592 0.0949336 0)
(-0.00523689 0.0961708 0)
(-0.00560119 0.0973457 0)
(-0.00597873 0.0984617 0)
(-0.00636937 0.0995225 0)
(-0.00677298 0.100532 0)
(-0.0071894 0.101494 0)
(-0.00761848 0.102412 0)
(-0.00806006 0.103292 0)
(-0.00851396 0.104137 0)
(-0.00898003 0.104951 0)
(-0.00945813 0.10574 0)
(-0.0099481 0.106508 0)
(-0.0104498 0.10726 0)
(-0.0109632 0.108 0)
(-0.0114882 0.108735 0)
(-0.0120248 0.109468 0)
(-0.0125729 0.110205 0)
(-0.0131326 0.110951 0)
(-0.0137041 0.111712 0)
(-0.0142875 0.112494 0)
(-0.014883 0.113303 0)
(-0.0154909 0.114145 0)
(-0.0161116 0.115026 0)
(-0.0167456 0.115956 0)
(-0.0173933 0.11694 0)
(-0.0180555 0.11799 0)
(-0.0187327 0.119114 0)
(-0.0194257 0.120324 0)
(-0.0201353 0.121634 0)
(-0.0208623 0.123059 0)
(-0.0216074 0.124617 0)
(-0.0223715 0.126327 0)
(-0.023155 0.128215 0)
(-0.0239583 0.130307 0)
(-0.0247815 0.132634 0)
(-0.025624 0.135232 0)