# Probe 0 (0.5 0.5 0.05)
# Time        0            
10.001        -0.0243644   
10.002        -0.0243655   
10.003        -0.024367    
10.004        -0.024369    
10.005        -0.0243712   
10.006        -0.0243733   
10.007        -0.0243754   
10.008        -0.0243774   
10.009        -0.0243794   
10.01         -0.0243814   
10.011        -0.0243834   
10.012        -0.0243853   
10.013        -0.0243873   
10.014        -0.0243892   
10.015        -0.0243912   
10.016        -0.0243931   
10.017        -0.0243951   
10.018        -0.024397    
10.019        -0.024399    
10.02         -0.024401    
10.021        -0.024403    
10.022        -0.024405    
10.023        -0.024407    
10.024        -0.0244089   
10.025        -0.0244109   
10.026        -0.0244129   
10.027        -0.0244149   
10.028        -0.0244168   
10.029        -0.0244188   
10.03         -0.0244207   
10.031        -0.0244228   
10.032        -0.0244248   
10.033        -0.0244267   
10.034        -0.0244286   
10.035        -0.0244306   
10.036        -0.0244326   
10.037        -0.0244346   
10.038        -0.0244365   
10.039        -0.0244385   
10.04         -0.0244405   
10.041        -0.0244424   
10.042        -0.0244444   
10.043        -0.0244464   
10.044        -0.0244483   
10.045        -0.0244503   
10.046        -0.0244522   
10.047        -0.0244543   
10.048        -0.0244563   
10.049        -0.0244582   
10.05         -0.0244602   
10.051        -0.0244622   
10.052        -0.0244641   
10.053        -0.0244661   
10.054        -0.0244681   
10.055        -0.02447     
10.056        -0.024472    
10.057        -0.024474    
10.058        -0.0244759   
10.059        -0.0244779   
10.06         -0.0244799   
10.061        -0.0244818   
10.062        -0.0244838   
10.063        -0.0244858   
10.064        -0.0244877   
10.065        -0.0244897   
10.066        -0.0244917   
10.067        -0.0244936   
10.068        -0.0244955   
10.069        -0.0244976   
10.07         -0.0244996   
10.071        -0.0245015   
10.072        -0.0245035   
10.073        -0.0245054   
10.074        -0.0245074   
10.075        -0.0245094   
10.076        -0.0245114   
10.077        -0.0245133   
10.078        -0.0245153   
10.079        -0.0245173   
10.08         -0.0245193   
10.081        -0.0245212   
10.082        -0.0245232   
10.083        -0.0245252   
10.084        -0.0245272   
10.085        -0.0245292   
10.086        -0.0245311   
10.087        -0.024533    
10.088        -0.0245351   
10.089        -0.024537    
10.09         -0.024539    
10.091        -0.0245409   
10.092        -0.0245429   
10.093        -0.0245448   
10.094        -0.0245468   
10.095        -0.0245487   
10.096        -0.0245507   
10.097        -0.0245526   
10.098        -0.0245546   
10.099        -0.0245565   
10.1          -0.0245585   
10.101        -0.0245605   
10.102        -0.0245624   
10.103        -0.0245644   
10.104        -0.0245664   
10.105        -0.0245683   
10.106        -0.0245703   
10.107        -0.0245723   
10.108        -0.0245743   
10.109        -0.0245762   
10.11         -0.0245782   
10.111        -0.0245801   
10.112        -0.0245821   
10.113        -0.024584    
10.114        -0.024586    
10.115        -0.024588    
10.116        -0.02459     
10.117        -0.024592    
10.118        -0.0245939   
10.119        -0.0245958   
10.12         -0.0245978   
10.121        -0.0245997   
10.122        -0.0246017   
10.123        -0.0246037   
10.124        -0.0246056   
10.125        -0.0246076   
10.126        -0.0246096   
10.127        -0.0246115   
10.128        -0.0246135   
10.129        -0.0246154   
10.13         -0.0246174   
10.131        -0.0246194   
10.132        -0.0246214   
10.133        -0.0246233   
10.134        -0.0246253   
10.135        -0.0246273   
10.136        -0.0246292   
10.137        -0.0246312   
10.138        -0.0246331   
10.139        -0.0246351   
10.14         -0.0246371   
10.141        -0.024639    
10.142        -0.024641    
10.143        -0.0246429   
10.144        -0.0246449   
10.145        -0.0246469   
10.146        -0.0246489   
10.147        -0.0246508   
10.148        -0.0246528   
10.149        -0.0246547   
10.15         -0.0246566   
10.151        -0.0246586   
10.152        -0.0246605   
10.153        -0.0246625   
10.154        -0.0246644   
10.155        -0.0246664   
10.156        -0.0246684   
10.157        -0.0246703   
10.158        -0.0246723   
10.159        -0.0246743   
10.16         -0.0246762   
10.161        -0.0246782   
10.162        -0.0246802   
10.163        -0.0246821   
10.164        -0.0246841   
10.165        -0.0246861   
10.166        -0.024688    
10.167        -0.0246899   
10.168        -0.0246919   
10.169        -0.0246939   
10.17         -0.0246958   
10.171        -0.0246978   
10.172        -0.0246997   
10.173        -0.0247017   
10.174        -0.0247037   
10.175        -0.0247056   
10.176        -0.0247076   
10.177        -0.0247095   
10.178        -0.0247115   
10.179        -0.0247135   
10.18         -0.0247154   
10.181        -0.0247174   
10.182        -0.0247194   
10.183        -0.0247213   
10.184        -0.0247233   
10.185        -0.0247252   
10.186        -0.0247271   
10.187        -0.0247291   
10.188        -0.024731    
10.189        -0.024733    
10.19         -0.0247349   
10.191        -0.0247369   
10.192        -0.0247388   
10.193        -0.0247408   
10.194        -0.0247428   
10.195        -0.0247447   
10.196        -0.0247467   
10.197        -0.0247486   
10.198        -0.0247506   
10.199        -0.0247526   
10.2          -0.0247545   
10.201        -0.0247565   
10.202        -0.0247584   
10.203        -0.0247604   
10.204        -0.0247623   
10.205        -0.0247643   
10.206        -0.0247662   
10.207        -0.0247682   
10.208        -0.0247701   
10.209        -0.0247721   
10.21         -0.0247741   
10.211        -0.024776    
10.212        -0.024778    
10.213        -0.0247799   
10.214        -0.0247819   
10.215        -0.0247838   
10.216        -0.0247858   
10.217        -0.0247877   
10.218        -0.0247897   
10.219        -0.0247917   
10.22         -0.0247936   
10.221        -0.0247955   
10.222        -0.0247975   
10.223        -0.0247994   
10.224        -0.0248014   
10.225        -0.0248034   
10.226        -0.0248053   
10.227        -0.0248073   
10.228        -0.0248093   
10.229        -0.0248112   
10.23         -0.0248131   
10.231        -0.0248151   
10.232        -0.024817    
10.233        -0.0248189   
10.234        -0.0248209   
10.235        -0.0248228   
10.236        -0.0248248   
10.237        -0.0248267   
10.238        -0.0248287   
10.239        -0.0248306   
10.24         -0.0248326   
10.241        -0.0248346   
10.242        -0.0248365   
10.243        -0.0248384   
10.244        -0.0248404   
10.245        -0.0248424   
10.246        -0.0248443   
10.247        -0.0248462   
10.248        -0.0248482   
10.249        -0.0248501   
10.25         -0.0248521   
10.251        -0.0248541   
10.252        -0.024856    
10.253        -0.0248579   
10.254        -0.0248598   
10.255        -0.0248618   
10.256        -0.0248638   
10.257        -0.0248657   
10.258        -0.0248677   
10.259        -0.0248696   
10.26         -0.0248716   
10.261        -0.0248736   
10.262        -0.0248755   
10.263        -0.0248774   
10.264        -0.0248794   
10.265        -0.0248813   
10.266        -0.0248833   
10.267        -0.0248852   
10.268        -0.0248872   
10.269        -0.0248891   
10.27         -0.0248911   
10.271        -0.024893    
10.272        -0.024895    
10.273        -0.0248969   
10.274        -0.0248989   
10.275        -0.0249008   
10.276        -0.0249028   
10.277        -0.0249047   
10.278        -0.0249067   
10.279        -0.0249086   
10.28         -0.0249106   
10.281        -0.0249125   
10.282        -0.0249144   
10.283        -0.0249164   
10.284        -0.0249183   
10.285        -0.0249202   
10.286        -0.0249222   
10.287        -0.0249241   
10.288        -0.0249261   
10.289        -0.024928    
10.29         -0.02493     
10.291        -0.0249319   
10.292        -0.0249339   
10.293        -0.0249358   
10.294        -0.0249378   
10.295        -0.0249397   
10.296        -0.0249417   
10.297        -0.0249436   
10.298        -0.0249455   
10.299        -0.0249475   
10.3          -0.0249494   
10.301        -0.0249514   
10.302        -0.0249533   
10.303        -0.0249553   
10.304        -0.0249572   
10.305        -0.0249592   
10.306        -0.0249611   
10.307        -0.0249631   
10.308        -0.024965    
10.309        -0.0249669   
10.31         -0.0249689   
10.311        -0.0249708   
10.312        -0.0249727   
10.313        -0.0249747   
10.314        -0.0249766   
10.315        -0.0249786   
10.316        -0.0249805   
10.317        -0.0249825   
10.318        -0.0249844   
10.319        -0.0249863   
10.32         -0.0249883   
10.321        -0.0249902   
10.322        -0.0249922   
10.323        -0.0249941   
10.324        -0.024996    
10.325        -0.024998    
10.326        -0.025       
10.327        -0.0250018   
10.328        -0.0250038   
10.329        -0.0250057   
10.33         -0.0250077   
10.331        -0.0250096   
10.332        -0.0250116   
10.333        -0.0250135   
10.334        -0.0250155   
10.335        -0.0250174   
10.336        -0.0250194   
10.337        -0.0250213   
10.338        -0.0250232   
10.339        -0.0250251   
10.34         -0.0250271   
10.341        -0.025029    
10.342        -0.0250309   
10.343        -0.0250329   
10.344        -0.0250348   
10.345        -0.0250368   
10.346        -0.0250387   
10.347        -0.0250406   
10.348        -0.0250426   
10.349        -0.0250445   
10.35         -0.0250465   
10.351        -0.0250484   
10.352        -0.0250503   
10.353        -0.0250523   
10.354        -0.0250542   
10.355        -0.0250562   
10.356        -0.0250581   
10.357        -0.02506     
10.358        -0.025062    
10.359        -0.0250639   
10.36         -0.0250659   
10.361        -0.0250678   
10.362        -0.0250698   
10.363        -0.0250717   
10.364        -0.0250736   
10.365        -0.0250755   
10.366        -0.0250775   
10.367        -0.0250794   
10.368        -0.0250813   
10.369        -0.0250833   
10.37         -0.0250852   
10.371        -0.0250871   
10.372        -0.0250891   
10.373        -0.025091    
10.374        -0.0250929   
10.375        -0.0250949   
10.376        -0.0250968   
10.377        -0.0250988   
10.378        -0.0251007   
10.379        -0.0251027   
10.38         -0.0251047   
10.381        -0.0251065   
10.382        -0.0251084   
10.383        -0.0251104   
10.384        -0.0251123   
10.385        -0.0251142   
10.386        -0.0251162   
10.387        -0.0251181   
10.388        -0.02512     
10.389        -0.025122    
10.39         -0.0251239   
10.391        -0.0251258   
10.392        -0.0251278   
10.393        -0.0251297   
10.394        -0.0251316   
10.395        -0.0251336   
10.396        -0.0251355   
10.397        -0.0251375   
10.398        -0.0251394   
10.399        -0.0251413   
10.4          -0.0251432   
10.401        -0.0251451   
10.402        -0.025147    
10.403        -0.025149    
10.404        -0.0251509   
10.405        -0.0251529   
10.406        -0.0251548   
10.407        -0.0251567   
10.408        -0.0251587   
10.409        -0.0251606   
10.41         -0.0251625   
10.411        -0.0251645   
10.412        -0.0251664   
10.413        -0.0251683   
10.414        -0.0251703   
10.415        -0.0251722   
10.416        -0.0251741   
10.417        -0.025176    
10.418        -0.025178    
10.419        -0.0251799   
10.42         -0.0251818   
10.421        -0.0251838   
10.422        -0.0251857   
10.423        -0.0251876   
10.424        -0.0251895   
10.425        -0.0251915   
10.426        -0.0251934   
10.427        -0.0251953   
10.428        -0.0251973   
10.429        -0.0251992   
10.43         -0.0252011   
10.431        -0.0252031   
10.432        -0.025205    
10.433        -0.0252069   
10.434        -0.0252088   
10.435        -0.0252108   
10.436        -0.0252127   
10.437        -0.0252146   
10.438        -0.0252166   
10.439        -0.0252185   
10.44         -0.0252204   
10.441        -0.0252223   
10.442        -0.0252243   
10.443        -0.0252262   
10.444        -0.0252281   
10.445        -0.02523     
10.446        -0.025232    
10.447        -0.0252339   
10.448        -0.0252358   
10.449        -0.0252377   
10.45         -0.0252397   
10.451        -0.0252416   
10.452        -0.0252435   
10.453        -0.0252454   
10.454        -0.0252473   
10.455        -0.0252493   
10.456        -0.0252512   
10.457        -0.0252532   
10.458        -0.0252551   
10.459        -0.0252571   
10.46         -0.025259    
10.461        -0.0252609   
10.462        -0.0252628   
10.463        -0.0252647   
10.464        -0.0252666   
10.465        -0.0252685   
10.466        -0.0252705   
10.467        -0.0252724   
10.468        -0.0252743   
10.469        -0.0252762   
10.47         -0.0252781   
10.471        -0.0252801   
10.472        -0.025282    
10.473        -0.0252839   
10.474        -0.0252859   
10.475        -0.0252878   
10.476        -0.0252897   
10.477        -0.0252916   
10.478        -0.0252935   
10.479        -0.0252954   
10.48         -0.0252974   
10.481        -0.0252993   
10.482        -0.0253012   
10.483        -0.0253032   
10.484        -0.0253051   
10.485        -0.025307    
10.486        -0.0253089   
10.487        -0.0253108   
10.488        -0.0253128   
10.489        -0.0253147   
10.49         -0.0253166   
10.491        -0.0253185   
10.492        -0.0253204   
10.493        -0.0253224   
10.494        -0.0253243   
10.495        -0.0253262   
10.496        -0.0253281   
10.497        -0.02533     
10.498        -0.025332    
10.499        -0.0253339   
10.5          -0.0253358   
10.501        -0.0253377   
10.502        -0.0253396   
10.503        -0.0253416   
10.504        -0.0253435   
10.505        -0.0253454   
10.506        -0.0253473   
10.507        -0.0253492   
10.508        -0.0253512   
10.509        -0.0253531   
10.51         -0.025355    
10.511        -0.0253569   
10.512        -0.0253588   
10.513        -0.0253607   
10.514        -0.0253627   
10.515        -0.0253646   
10.516        -0.0253665   
10.517        -0.0253684   
10.518        -0.0253704   
10.519        -0.0253723   
10.52         -0.0253742   
10.521        -0.0253761   
10.522        -0.025378    
10.523        -0.0253799   
10.524        -0.0253818   
10.525        -0.0253838   
10.526        -0.0253857   
10.527        -0.0253876   
10.528        -0.0253895   
10.529        -0.0253914   
10.53         -0.0253934   
10.531        -0.0253953   
10.532        -0.0253972   
10.533        -0.0253991   
10.534        -0.025401    
10.535        -0.0254029   
10.536        -0.0254048   
10.537        -0.0254067   
10.538        -0.0254086   
10.539        -0.0254106   
10.54         -0.0254124   
10.541        -0.0254144   
10.542        -0.0254163   
10.543        -0.0254182   
10.544        -0.0254202   
10.545        -0.0254221   
10.546        -0.0254241   
10.547        -0.0254259   
10.548        -0.0254278   
10.549        -0.0254297   
10.55         -0.0254316   
10.551        -0.0254335   
10.552        -0.0254354   
10.553        -0.0254373   
10.554        -0.0254393   
10.555        -0.0254412   
10.556        -0.0254431   
10.557        -0.025445    
10.558        -0.0254469   
10.559        -0.0254488   
10.56         -0.0254507   
10.561        -0.0254527   
10.562        -0.0254545   
10.563        -0.0254565   
10.564        -0.0254585   
10.565        -0.0254603   
10.566        -0.0254622   
10.567        -0.0254641   
10.568        -0.025466    
10.569        -0.0254679   
10.57         -0.0254699   
10.571        -0.0254718   
10.572        -0.0254737   
10.573        -0.0254756   
10.574        -0.0254775   
10.575        -0.0254794   
10.576        -0.0254813   
10.577        -0.0254832   
10.578        -0.0254851   
10.579        -0.025487    
10.58         -0.025489    
10.581        -0.0254909   
10.582        -0.0254928   
10.583        -0.0254947   
10.584        -0.0254966   
10.585        -0.0254985   
10.586        -0.0255004   
10.587        -0.0255023   
10.588        -0.0255042   
10.589        -0.0255061   
10.59         -0.025508    
10.591        -0.02551     
10.592        -0.0255119   
10.593        -0.0255138   
10.594        -0.0255157   
10.595        -0.0255176   
10.596        -0.0255195   
10.597        -0.0255214   
10.598        -0.0255233   
10.599        -0.0255252   
10.6          -0.0255271   
10.601        -0.025529    
10.602        -0.0255309   
10.603        -0.0255328   
10.604        -0.0255347   
10.605        -0.0255366   
10.606        -0.0255385   
10.607        -0.0255404   
10.608        -0.0255423   
10.609        -0.0255442   
10.61         -0.0255462   
10.611        -0.0255481   
10.612        -0.02555     
10.613        -0.0255519   
10.614        -0.0255538   
10.615        -0.0255557   
10.616        -0.0255576   
10.617        -0.0255595   
10.618        -0.0255614   
10.619        -0.0255633   
10.62         -0.0255652   
10.621        -0.0255671   
10.622        -0.025569    
10.623        -0.0255709   
10.624        -0.0255728   
10.625        -0.0255747   
10.626        -0.0255766   
10.627        -0.0255785   
10.628        -0.0255804   
10.629        -0.0255823   
10.63         -0.0255842   
10.631        -0.0255862   
10.632        -0.0255881   
10.633        -0.02559     
10.634        -0.0255919   
10.635        -0.0255937   
10.636        -0.0255956   
10.637        -0.0255976   
10.638        -0.0255995   
10.639        -0.0256013   
10.64         -0.0256032   
10.641        -0.0256051   
10.642        -0.025607    
10.643        -0.0256089   
10.644        -0.0256108   
10.645        -0.0256127   
10.646        -0.0256146   
10.647        -0.0256165   
10.648        -0.0256184   
10.649        -0.0256203   
10.65         -0.0256222   
10.651        -0.0256241   
10.652        -0.025626    
10.653        -0.025628    
10.654        -0.0256299   
10.655        -0.0256318   
10.656        -0.0256337   
10.657        -0.0256355   
10.658        -0.0256374   
10.659        -0.0256393   
10.66         -0.0256412   
10.661        -0.0256431   
10.662        -0.025645    
10.663        -0.0256469   
10.664        -0.0256488   
10.665        -0.0256507   
10.666        -0.0256526   
10.667        -0.0256545   
10.668        -0.0256564   
10.669        -0.0256583   
10.67         -0.0256602   
10.671        -0.0256621   
10.672        -0.025664    
10.673        -0.0256659   
10.674        -0.0256678   
10.675        -0.0256697   
10.676        -0.0256716   
10.677        -0.0256734   
10.678        -0.0256753   
10.679        -0.0256771   
10.68         -0.0256791   
10.681        -0.0256811   
10.682        -0.025683    
10.683        -0.0256849   
10.684        -0.0256868   
10.685        -0.0256887   
10.686        -0.0256906   
10.687        -0.0256925   
10.688        -0.0256944   
10.689        -0.0256962   
10.69         -0.0256981   
10.691        -0.0257      
10.692        -0.0257019   
10.693        -0.0257038   
10.694        -0.0257057   
10.695        -0.0257076   
10.696        -0.0257094   
10.697        -0.0257113   
10.698        -0.0257133   
10.699        -0.0257152   
10.7          -0.025717    
10.701        -0.0257189   
10.702        -0.0257208   
10.703        -0.0257227   
10.704        -0.0257246   
10.705        -0.0257265   
10.706        -0.0257284   
10.707        -0.0257303   
10.708        -0.0257322   
10.709        -0.0257341   
10.71         -0.025736    
10.711        -0.0257378   
10.712        -0.0257397   
10.713        -0.0257416   
10.714        -0.0257435   
10.715        -0.0257454   
10.716        -0.0257473   
10.717        -0.0257492   
10.718        -0.0257511   
10.719        -0.025753    
10.72         -0.0257549   
10.721        -0.0257567   
10.722        -0.0257586   
10.723        -0.0257605   
10.724        -0.0257624   
10.725        -0.0257643   
10.726        -0.0257662   
10.727        -0.0257681   
10.728        -0.02577     
10.729        -0.0257719   
10.73         -0.0257738   
10.731        -0.0257757   
10.732        -0.0257775   
10.733        -0.0257794   
10.734        -0.0257813   
10.735        -0.0257832   
10.736        -0.0257851   
10.737        -0.0257869   
10.738        -0.0257888   
10.739        -0.0257907   
10.74         -0.0257926   
10.741        -0.0257945   
10.742        -0.0257964   
10.743        -0.0257983   
10.744        -0.0258002   
10.745        -0.025802    
10.746        -0.0258039   
10.747        -0.0258058   
10.748        -0.0258077   
10.749        -0.0258096   
10.75         -0.0258114   
10.751        -0.0258133   
10.752        -0.0258152   
10.753        -0.0258171   
10.754        -0.025819    
10.755        -0.0258209   
10.756        -0.0258228   
10.757        -0.0258246   
10.758        -0.0258265   
10.759        -0.0258284   
10.76         -0.0258303   
10.761        -0.0258322   
10.762        -0.0258341   
10.763        -0.025836    
10.764        -0.0258378   
10.765        -0.0258397   
10.766        -0.0258416   
10.767        -0.0258435   
10.768        -0.0258454   
10.769        -0.0258473   
10.77         -0.0258492   
10.771        -0.025851    
10.772        -0.0258529   
10.773        -0.0258548   
10.774        -0.0258567   
10.775        -0.0258585   
10.776        -0.0258604   
10.777        -0.0258622   
10.778        -0.0258641   
10.779        -0.025866    
10.78         -0.0258679   
10.781        -0.0258698   
10.782        -0.0258717   
10.783        -0.0258736   
10.784        -0.0258755   
10.785        -0.0258774   
10.786        -0.0258792   
10.787        -0.0258811   
10.788        -0.0258828   
10.789        -0.0258848   
10.79         -0.0258867   
10.791        -0.0258886   
10.792        -0.0258905   
10.793        -0.0258924   
10.794        -0.0258943   
10.795        -0.0258961   
10.796        -0.025898    
10.797        -0.0258999   
10.798        -0.0259017   
10.799        -0.0259036   
10.8          -0.0259054   
10.801        -0.0259074   
10.802        -0.0259092   
10.803        -0.0259111   
10.804        -0.025913    
10.805        -0.0259149   
10.806        -0.0259168   
10.807        -0.0259187   
10.808        -0.0259205   
10.809        -0.0259224   
10.81         -0.0259243   
10.811        -0.0259262   
10.812        -0.025928    
10.813        -0.0259299   
10.814        -0.0259317   
10.815        -0.0259336   
10.816        -0.0259355   
10.817        -0.0259374   
10.818        -0.0259393   
10.819        -0.0259412   
10.82         -0.0259429   
10.821        -0.0259449   
10.822        -0.0259468   
10.823        -0.0259487   
10.824        -0.0259506   
10.825        -0.0259524   
10.826        -0.0259544   
10.827        -0.0259562   
10.828        -0.0259579   
10.829        -0.0259599   
10.83         -0.0259617   
10.831        -0.0259636   
10.832        -0.0259655   
10.833        -0.0259674   
10.834        -0.0259693   
10.835        -0.0259711   
10.836        -0.025973    
10.837        -0.0259749   
10.838        -0.0259767   
10.839        -0.0259786   
10.84         -0.0259804   
10.841        -0.0259823   
10.842        -0.0259841   
10.843        -0.0259861   
10.844        -0.0259879   
10.845        -0.0259898   
10.846        -0.0259917   
10.847        -0.0259936   
10.848        -0.0259955   
10.849        -0.0259973   
10.85         -0.0259992   
10.851        -0.0260011   
10.852        -0.0260029   
10.853        -0.0260048   
10.854        -0.0260067   
10.855        -0.0260085   
10.856        -0.0260104   
10.857        -0.0260123   
10.858        -0.0260141   
10.859        -0.0260159   
10.86         -0.0260179   
10.861        -0.0260197   
10.862        -0.0260216   
10.863        -0.0260234   
10.864        -0.0260253   
10.865        -0.0260272   
10.866        -0.0260291   
10.867        -0.026031    
10.868        -0.0260328   
10.869        -0.0260347   
10.87         -0.0260364   
10.871        -0.0260383   
10.872        -0.0260402   
10.873        -0.0260421   
10.874        -0.026044    
10.875        -0.0260457   
10.876        -0.0260477   
10.877        -0.0260496   
10.878        -0.0260513   
10.879        -0.0260533   
10.88         -0.0260552   
10.881        -0.0260571   
10.882        -0.026059    
10.883        -0.0260608   
10.884        -0.0260627   
10.885        -0.0260644   
10.886        -0.0260664   
10.887        -0.0260682   
10.888        -0.0260701   
10.889        -0.026072    
10.89         -0.0260739   
10.891        -0.0260757   
10.892        -0.0260776   
10.893        -0.0260793   
10.894        -0.0260813   
10.895        -0.0260831   
10.896        -0.026085    
10.897        -0.0260869   
10.898        -0.0260886   
10.899        -0.0260905   
10.9          -0.0260924   
10.901        -0.0260942   
10.902        -0.0260962   
10.903        -0.026098    
10.904        -0.0260999   
10.905        -0.0261018   
10.906        -0.0261037   
10.907        -0.0261055   
10.908        -0.0261074   
10.909        -0.0261092   
10.91         -0.0261111   
10.911        -0.0261129   
10.912        -0.0261148   
10.913        -0.0261166   
10.914        -0.0261184   
10.915        -0.0261203   
10.916        -0.0261221   
10.917        -0.026124    
10.918        -0.0261259   
10.919        -0.0261277   
10.92         -0.0261296   
10.921        -0.0261315   
10.922        -0.0261335   
10.923        -0.0261353   
10.924        -0.026137    
10.925        -0.0261389   
10.926        -0.0261408   
10.927        -0.0261426   
10.928        -0.0261444   
10.929        -0.0261463   
10.93         -0.0261482   
10.931        -0.02615     
10.932        -0.0261519   
10.933        -0.0261537   
10.934        -0.0261556   
10.935        -0.0261574   
10.936        -0.0261593   
10.937        -0.0261612   
10.938        -0.026163    
10.939        -0.0261649   
10.94         -0.0261667   
10.941        -0.0261686   
10.942        -0.0261705   
10.943        -0.0261723   
10.944        -0.0261742   
10.945        -0.026176    
10.946        -0.0261779   
10.947        -0.0261797   
10.948        -0.0261816   
10.949        -0.0261834   
10.95         -0.0261853   
10.951        -0.0261871   
10.952        -0.026189    
10.953        -0.0261908   
10.954        -0.0261927   
10.955        -0.0261945   
10.956        -0.0261964   
10.957        -0.0261982   
10.958        -0.0262001   
10.959        -0.026202    
10.96         -0.0262038   
10.961        -0.0262056   
10.962        -0.0262075   
10.963        -0.0262094   
10.964        -0.0262112   
10.965        -0.0262131   
10.966        -0.0262149   
10.967        -0.0262168   
10.968        -0.0262186   
10.969        -0.0262204   
10.97         -0.0262223   
10.971        -0.0262241   
10.972        -0.026226    
10.973        -0.0262278   
10.974        -0.0262297   
10.975        -0.0262315   
10.976        -0.0262334   
10.977        -0.0262352   
10.978        -0.0262371   
10.979        -0.0262389   
10.98         -0.0262408   
10.981        -0.0262426   
10.982        -0.0262445   
10.983        -0.0262463   
10.984        -0.0262482   
10.985        -0.02625     
10.986        -0.0262519   
10.987        -0.0262537   
10.988        -0.0262556   
10.989        -0.0262574   
10.99         -0.0262593   
10.991        -0.0262611   
10.992        -0.026263    
10.993        -0.0262648   
10.994        -0.0262667   
10.995        -0.0262685   
10.996        -0.0262703   
10.997        -0.0262721   
10.998        -0.026274    
10.999        -0.0262759   
11            -0.0262777   
11.001        -0.0262796   
11.002        -0.0262814   
11.003        -0.0262833   
11.004        -0.0262851   
11.005        -0.0262869   
11.006        -0.0262888   
11.007        -0.0262906   
11.008        -0.0262925   
11.009        -0.0262943   
11.01         -0.0262962   
11.011        -0.026298    
11.012        -0.0262998   
11.013        -0.0263017   
11.014        -0.0263035   
11.015        -0.0263054   
11.016        -0.0263072   
11.017        -0.0263091   
11.018        -0.0263109   
11.019        -0.0263129   
11.02         -0.0263145   
11.021        -0.0263164   
11.022        -0.0263182   
11.023        -0.0263201   
11.024        -0.0263219   
11.025        -0.0263238   
11.026        -0.0263256   
11.027        -0.0263275   
11.028        -0.0263293   
11.029        -0.0263311   
11.03         -0.026333    
11.031        -0.0263348   
11.032        -0.0263367   
11.033        -0.0263384   
11.034        -0.0263404   
11.035        -0.0263422   
11.036        -0.026344    
11.037        -0.0263459   
11.038        -0.0263477   
11.039        -0.0263495   
11.04         -0.0263514   
11.041        -0.0263532   
11.042        -0.026355    
11.043        -0.0263569   
11.044        -0.0263587   
11.045        -0.0263606   
11.046        -0.0263624   
11.047        -0.0263642   
11.048        -0.0263661   
11.049        -0.0263679   
11.05         -0.0263697   
11.051        -0.0263716   
11.052        -0.0263734   
11.053        -0.0263753   
11.054        -0.0263771   
11.055        -0.0263789   
11.056        -0.0263807   
11.057        -0.0263826   
11.058        -0.0263844   
11.059        -0.0263863   
11.06         -0.0263881   
11.061        -0.0263899   
11.062        -0.0263918   
11.063        -0.0263936   
11.064        -0.0263954   
11.065        -0.0263973   
11.066        -0.0263991   
11.067        -0.0264009   
11.068        -0.0264028   
11.069        -0.0264045   