# Probe 0 (0.5 0.5 0.05)
# Time        0            
10.001        (0.981588 1.90347e-05 0)
10.002        (0.981589 1.9025e-05 0)
10.003        (0.981589 1.90176e-05 0)
10.004        (0.981589 1.90121e-05 0)
10.005        (0.98159 1.90082e-05 0)
10.006        (0.98159 1.90054e-05 0)
10.007        (0.98159 1.90033e-05 0)
10.008        (0.981591 1.90017e-05 0)
10.009        (0.981591 1.90005e-05 0)
10.01         (0.981592 1.89994e-05 0)
10.011        (0.981592 1.89985e-05 0)
10.012        (0.981592 1.89977e-05 0)
10.013        (0.981593 1.89968e-05 0)
10.014        (0.981593 1.8996e-05 0)
10.015        (0.981593 1.89953e-05 0)
10.016        (0.981594 1.89945e-05 0)
10.017        (0.981594 1.89937e-05 0)
10.018        (0.981594 1.8993e-05 0)
10.019        (0.981595 1.89922e-05 0)
10.02         (0.981595 1.89915e-05 0)
10.021        (0.981596 1.89907e-05 0)
10.022        (0.981596 1.899e-05 0)
10.023        (0.981596 1.89892e-05 0)
10.024        (0.981597 1.89885e-05 0)
10.025        (0.981597 1.89877e-05 0)
10.026        (0.981597 1.8987e-05 0)
10.027        (0.981598 1.89863e-05 0)
10.028        (0.981598 1.89855e-05 0)
10.029        (0.981599 1.89848e-05 0)
10.03         (0.981599 1.8984e-05 0)
10.031        (0.981599 1.89833e-05 0)
10.032        (0.9816 1.89826e-05 0)
10.033        (0.9816 1.89818e-05 0)
10.034        (0.9816 1.89811e-05 0)
10.035        (0.981601 1.89804e-05 0)
10.036        (0.981601 1.89796e-05 0)
10.037        (0.981601 1.89789e-05 0)
10.038        (0.981602 1.89782e-05 0)
10.039        (0.981602 1.89775e-05 0)
10.04         (0.981603 1.89768e-05 0)
10.041        (0.981603 1.8976e-05 0)
10.042        (0.981603 1.89753e-05 0)
10.043        (0.981604 1.89746e-05 0)
10.044        (0.981604 1.89739e-05 0)
10.045        (0.981604 1.89732e-05 0)
10.046        (0.981605 1.89724e-05 0)
10.047        (0.981605 1.89717e-05 0)
10.048        (0.981606 1.8971e-05 0)
10.049        (0.981606 1.89703e-05 0)
10.05         (0.981606 1.89695e-05 0)
10.051        (0.981607 1.89688e-05 0)
10.052        (0.981607 1.89681e-05 0)
10.053        (0.981607 1.89674e-05 0)
10.054        (0.981608 1.89666e-05 0)
10.055        (0.981608 1.89659e-05 0)
10.056        (0.981608 1.89652e-05 0)
10.057        (0.981609 1.89645e-05 0)
10.058        (0.981609 1.89637e-05 0)
10.059        (0.98161 1.8963e-05 0)
10.06         (0.98161 1.89623e-05 0)
10.061        (0.98161 1.89616e-05 0)
10.062        (0.981611 1.89608e-05 0)
10.063        (0.981611 1.89601e-05 0)
10.064        (0.981611 1.89594e-05 0)
10.065        (0.981612 1.89587e-05 0)
10.066        (0.981612 1.89579e-05 0)
10.067        (0.981613 1.89572e-05 0)
10.068        (0.981613 1.89565e-05 0)
10.069        (0.981613 1.89557e-05 0)
10.07         (0.981614 1.8955e-05 0)
10.071        (0.981614 1.89543e-05 0)
10.072        (0.981614 1.89535e-05 0)
10.073        (0.981615 1.89528e-05 0)
10.074        (0.981615 1.89521e-05 0)
10.075        (0.981615 1.89514e-05 0)
10.076        (0.981616 1.89506e-05 0)
10.077        (0.981616 1.89499e-05 0)
10.078        (0.981617 1.89492e-05 0)
10.079        (0.981617 1.89484e-05 0)
10.08         (0.981617 1.89477e-05 0)
10.081        (0.981618 1.8947e-05 0)
10.082        (0.981618 1.89462e-05 0)
10.083        (0.981618 1.89455e-05 0)
10.084        (0.981619 1.89448e-05 0)
10.085        (0.981619 1.8944e-05 0)
10.086        (0.98162 1.89433e-05 0)
10.087        (0.98162 1.89426e-05 0)
10.088        (0.98162 1.89418e-05 0)
10.089        (0.981621 1.89411e-05 0)
10.09         (0.981621 1.89404e-05 0)
10.091        (0.981621 1.89397e-05 0)
10.092        (0.981622 1.89389e-05 0)
10.093        (0.981622 1.89382e-05 0)
10.094        (0.981622 1.89374e-05 0)
10.095        (0.981623 1.89367e-05 0)
10.096        (0.981623 1.8936e-05 0)
10.097        (0.981624 1.89352e-05 0)
10.098        (0.981624 1.89345e-05 0)
10.099        (0.981624 1.89338e-05 0)
10.1          (0.981625 1.8933e-05 0)
10.101        (0.981625 1.89323e-05 0)
10.102        (0.981625 1.89316e-05 0)
10.103        (0.981626 1.89308e-05 0)
10.104        (0.981626 1.89301e-05 0)
10.105        (0.981627 1.89294e-05 0)
10.106        (0.981627 1.89286e-05 0)
10.107        (0.981627 1.89279e-05 0)
10.108        (0.981628 1.89272e-05 0)
10.109        (0.981628 1.89264e-05 0)
10.11         (0.981628 1.89257e-05 0)
10.111        (0.981629 1.8925e-05 0)
10.112        (0.981629 1.89242e-05 0)
10.113        (0.981629 1.89235e-05 0)
10.114        (0.98163 1.89227e-05 0)
10.115        (0.98163 1.8922e-05 0)
10.116        (0.981631 1.89213e-05 0)
10.117        (0.981631 1.89205e-05 0)
10.118        (0.981631 1.89198e-05 0)
10.119        (0.981632 1.89191e-05 0)
10.12         (0.981632 1.89183e-05 0)
10.121        (0.981632 1.89176e-05 0)
10.122        (0.981633 1.89169e-05 0)
10.123        (0.981633 1.89161e-05 0)
10.124        (0.981634 1.89154e-05 0)
10.125        (0.981634 1.89147e-05 0)
10.126        (0.981634 1.89139e-05 0)
10.127        (0.981635 1.89132e-05 0)
10.128        (0.981635 1.89125e-05 0)
10.129        (0.981635 1.89117e-05 0)
10.13         (0.981636 1.8911e-05 0)
10.131        (0.981636 1.89103e-05 0)
10.132        (0.981636 1.89095e-05 0)
10.133        (0.981637 1.89088e-05 0)
10.134        (0.981637 1.89081e-05 0)
10.135        (0.981638 1.89073e-05 0)
10.136        (0.981638 1.89066e-05 0)
10.137        (0.981638 1.89058e-05 0)
10.138        (0.981639 1.89051e-05 0)
10.139        (0.981639 1.89044e-05 0)
10.14         (0.981639 1.89036e-05 0)
10.141        (0.98164 1.89029e-05 0)
10.142        (0.98164 1.89022e-05 0)
10.143        (0.981641 1.89014e-05 0)
10.144        (0.981641 1.89007e-05 0)
10.145        (0.981641 1.88999e-05 0)
10.146        (0.981642 1.88992e-05 0)
10.147        (0.981642 1.88985e-05 0)
10.148        (0.981642 1.88977e-05 0)
10.149        (0.981643 1.8897e-05 0)
10.15         (0.981643 1.88963e-05 0)
10.151        (0.981643 1.88955e-05 0)
10.152        (0.981644 1.88948e-05 0)
10.153        (0.981644 1.88941e-05 0)
10.154        (0.981645 1.88933e-05 0)
10.155        (0.981645 1.88926e-05 0)
10.156        (0.981645 1.88919e-05 0)
10.157        (0.981646 1.88911e-05 0)
10.158        (0.981646 1.88904e-05 0)
10.159        (0.981646 1.88896e-05 0)
10.16         (0.981647 1.88889e-05 0)
10.161        (0.981647 1.88882e-05 0)
10.162        (0.981648 1.88874e-05 0)
10.163        (0.981648 1.88867e-05 0)
10.164        (0.981648 1.8886e-05 0)
10.165        (0.981649 1.88852e-05 0)
10.166        (0.981649 1.88845e-05 0)
10.167        (0.981649 1.88838e-05 0)
10.168        (0.98165 1.8883e-05 0)
10.169        (0.98165 1.88823e-05 0)
10.17         (0.98165 1.88815e-05 0)
10.171        (0.981651 1.88808e-05 0)
10.172        (0.981651 1.88801e-05 0)
10.173        (0.981652 1.88793e-05 0)
10.174        (0.981652 1.88786e-05 0)
10.175        (0.981652 1.88779e-05 0)
10.176        (0.981653 1.88771e-05 0)
10.177        (0.981653 1.88764e-05 0)
10.178        (0.981653 1.88756e-05 0)
10.179        (0.981654 1.88749e-05 0)
10.18         (0.981654 1.88742e-05 0)
10.181        (0.981655 1.88734e-05 0)
10.182        (0.981655 1.88727e-05 0)
10.183        (0.981655 1.88719e-05 0)
10.184        (0.981656 1.88712e-05 0)
10.185        (0.981656 1.88705e-05 0)
10.186        (0.981656 1.88697e-05 0)
10.187        (0.981657 1.8869e-05 0)
10.188        (0.981657 1.88683e-05 0)
10.189        (0.981657 1.88675e-05 0)
10.19         (0.981658 1.88668e-05 0)
10.191        (0.981658 1.88661e-05 0)
10.192        (0.981659 1.88653e-05 0)
10.193        (0.981659 1.88646e-05 0)
10.194        (0.981659 1.88639e-05 0)
10.195        (0.98166 1.88631e-05 0)
10.196        (0.98166 1.88624e-05 0)
10.197        (0.98166 1.88616e-05 0)
10.198        (0.981661 1.88609e-05 0)
10.199        (0.981661 1.88602e-05 0)
10.2          (0.981662 1.88594e-05 0)
10.201        (0.981662 1.88587e-05 0)
10.202        (0.981662 1.88579e-05 0)
10.203        (0.981663 1.88572e-05 0)
10.204        (0.981663 1.88565e-05 0)
10.205        (0.981663 1.88557e-05 0)
10.206        (0.981664 1.8855e-05 0)
10.207        (0.981664 1.88543e-05 0)
10.208        (0.981664 1.88535e-05 0)
10.209        (0.981665 1.88528e-05 0)
10.21         (0.981665 1.8852e-05 0)
10.211        (0.981666 1.88513e-05 0)
10.212        (0.981666 1.88506e-05 0)
10.213        (0.981666 1.88498e-05 0)
10.214        (0.981667 1.88491e-05 0)
10.215        (0.981667 1.88484e-05 0)
10.216        (0.981667 1.88476e-05 0)
10.217        (0.981668 1.88469e-05 0)
10.218        (0.981668 1.88461e-05 0)
10.219        (0.981669 1.88454e-05 0)
10.22         (0.981669 1.88447e-05 0)
10.221        (0.981669 1.88439e-05 0)
10.222        (0.98167 1.88432e-05 0)
10.223        (0.98167 1.88425e-05 0)
10.224        (0.98167 1.88417e-05 0)
10.225        (0.981671 1.8841e-05 0)
10.226        (0.981671 1.88402e-05 0)
10.227        (0.981671 1.88395e-05 0)
10.228        (0.981672 1.88388e-05 0)
10.229        (0.981672 1.8838e-05 0)
10.23         (0.981673 1.88373e-05 0)
10.231        (0.981673 1.88366e-05 0)
10.232        (0.981673 1.88358e-05 0)
10.233        (0.981674 1.88351e-05 0)
10.234        (0.981674 1.88343e-05 0)
10.235        (0.981674 1.88336e-05 0)
10.236        (0.981675 1.88329e-05 0)
10.237        (0.981675 1.88321e-05 0)
10.238        (0.981676 1.88314e-05 0)
10.239        (0.981676 1.88307e-05 0)
10.24         (0.981676 1.88299e-05 0)
10.241        (0.981677 1.88292e-05 0)
10.242        (0.981677 1.88284e-05 0)
10.243        (0.981677 1.88277e-05 0)
10.244        (0.981678 1.88269e-05 0)
10.245        (0.981678 1.88262e-05 0)
10.246        (0.981678 1.88255e-05 0)
10.247        (0.981679 1.88247e-05 0)
10.248        (0.981679 1.8824e-05 0)
10.249        (0.98168 1.88233e-05 0)
10.25         (0.98168 1.88225e-05 0)
10.251        (0.98168 1.88218e-05 0)
10.252        (0.981681 1.88211e-05 0)
10.253        (0.981681 1.88203e-05 0)
10.254        (0.981681 1.88196e-05 0)
10.255        (0.981682 1.88188e-05 0)
10.256        (0.981682 1.88181e-05 0)
10.257        (0.981683 1.88174e-05 0)
10.258        (0.981683 1.88166e-05 0)
10.259        (0.981683 1.88159e-05 0)
10.26         (0.981684 1.88151e-05 0)
10.261        (0.981684 1.88144e-05 0)
10.262        (0.981684 1.88137e-05 0)
10.263        (0.981685 1.88129e-05 0)
10.264        (0.981685 1.88122e-05 0)
10.265        (0.981685 1.88115e-05 0)
10.266        (0.981686 1.88107e-05 0)
10.267        (0.981686 1.881e-05 0)
10.268        (0.981687 1.88092e-05 0)
10.269        (0.981687 1.88085e-05 0)
10.27         (0.981687 1.88078e-05 0)
10.271        (0.981688 1.8807e-05 0)
10.272        (0.981688 1.88063e-05 0)
10.273        (0.981688 1.88056e-05 0)
10.274        (0.981689 1.88048e-05 0)
10.275        (0.981689 1.88041e-05 0)
10.276        (0.98169 1.88033e-05 0)
10.277        (0.98169 1.88026e-05 0)
10.278        (0.98169 1.88019e-05 0)
10.279        (0.981691 1.88011e-05 0)
10.28         (0.981691 1.88004e-05 0)
10.281        (0.981691 1.87996e-05 0)
10.282        (0.981692 1.87989e-05 0)
10.283        (0.981692 1.87982e-05 0)
10.284        (0.981692 1.87974e-05 0)
10.285        (0.981693 1.87967e-05 0)
10.286        (0.981693 1.8796e-05 0)
10.287        (0.981694 1.87952e-05 0)
10.288        (0.981694 1.87945e-05 0)
10.289        (0.981694 1.87937e-05 0)
10.29         (0.981695 1.8793e-05 0)
10.291        (0.981695 1.87923e-05 0)
10.292        (0.981695 1.87915e-05 0)
10.293        (0.981696 1.87908e-05 0)
10.294        (0.981696 1.879e-05 0)
10.295        (0.981697 1.87893e-05 0)
10.296        (0.981697 1.87886e-05 0)
10.297        (0.981697 1.87878e-05 0)
10.298        (0.981698 1.87871e-05 0)
10.299        (0.981698 1.87864e-05 0)
10.3          (0.981698 1.87856e-05 0)
10.301        (0.981699 1.87849e-05 0)
10.302        (0.981699 1.87841e-05 0)
10.303        (0.981699 1.87834e-05 0)
10.304        (0.9817 1.87827e-05 0)
10.305        (0.9817 1.87819e-05 0)
10.306        (0.981701 1.87812e-05 0)
10.307        (0.981701 1.87804e-05 0)
10.308        (0.981701 1.87797e-05 0)
10.309        (0.981702 1.8779e-05 0)
10.31         (0.981702 1.87782e-05 0)
10.311        (0.981702 1.87775e-05 0)
10.312        (0.981703 1.87767e-05 0)
10.313        (0.981703 1.8776e-05 0)
10.314        (0.981704 1.87753e-05 0)
10.315        (0.981704 1.87745e-05 0)
10.316        (0.981704 1.87738e-05 0)
10.317        (0.981705 1.8773e-05 0)
10.318        (0.981705 1.87723e-05 0)
10.319        (0.981705 1.87716e-05 0)
10.32         (0.981706 1.87708e-05 0)
10.321        (0.981706 1.87701e-05 0)
10.322        (0.981706 1.87693e-05 0)
10.323        (0.981707 1.87686e-05 0)
10.324        (0.981707 1.87679e-05 0)
10.325        (0.981708 1.87671e-05 0)
10.326        (0.981708 1.87664e-05 0)
10.327        (0.981708 1.87656e-05 0)
10.328        (0.981709 1.87649e-05 0)
10.329        (0.981709 1.87642e-05 0)
10.33         (0.981709 1.87634e-05 0)
10.331        (0.98171 1.87627e-05 0)
10.332        (0.98171 1.87619e-05 0)
10.333        (0.981711 1.87612e-05 0)
10.334        (0.981711 1.87605e-05 0)
10.335        (0.981711 1.87597e-05 0)
10.336        (0.981712 1.8759e-05 0)
10.337        (0.981712 1.87582e-05 0)
10.338        (0.981712 1.87575e-05 0)
10.339        (0.981713 1.87568e-05 0)
10.34         (0.981713 1.8756e-05 0)
10.341        (0.981713 1.87553e-05 0)
10.342        (0.981714 1.87545e-05 0)
10.343        (0.981714 1.87538e-05 0)
10.344        (0.981715 1.87531e-05 0)
10.345        (0.981715 1.87523e-05 0)
10.346        (0.981715 1.87516e-05 0)
10.347        (0.981716 1.87509e-05 0)
10.348        (0.981716 1.87501e-05 0)
10.349        (0.981716 1.87494e-05 0)
10.35         (0.981717 1.87486e-05 0)
10.351        (0.981717 1.87479e-05 0)
10.352        (0.981718 1.87472e-05 0)
10.353        (0.981718 1.87464e-05 0)
10.354        (0.981718 1.87457e-05 0)
10.355        (0.981719 1.87449e-05 0)
10.356        (0.981719 1.87442e-05 0)
10.357        (0.981719 1.87435e-05 0)
10.358        (0.98172 1.87427e-05 0)
10.359        (0.98172 1.8742e-05 0)
10.36         (0.98172 1.87412e-05 0)
10.361        (0.981721 1.87405e-05 0)
10.362        (0.981721 1.87398e-05 0)
10.363        (0.981722 1.8739e-05 0)
10.364        (0.981722 1.87383e-05 0)
10.365        (0.981722 1.87375e-05 0)
10.366        (0.981723 1.87368e-05 0)
10.367        (0.981723 1.87361e-05 0)
10.368        (0.981723 1.87353e-05 0)
10.369        (0.981724 1.87346e-05 0)
10.37         (0.981724 1.87338e-05 0)
10.371        (0.981725 1.87331e-05 0)
10.372        (0.981725 1.87324e-05 0)
10.373        (0.981725 1.87316e-05 0)
10.374        (0.981726 1.87309e-05 0)
10.375        (0.981726 1.87301e-05 0)
10.376        (0.981726 1.87294e-05 0)
10.377        (0.981727 1.87287e-05 0)
10.378        (0.981727 1.87279e-05 0)
10.379        (0.981727 1.87272e-05 0)
10.38         (0.981728 1.87264e-05 0)
10.381        (0.981728 1.87257e-05 0)
10.382        (0.981729 1.8725e-05 0)
10.383        (0.981729 1.87242e-05 0)
10.384        (0.981729 1.87235e-05 0)
10.385        (0.98173 1.87227e-05 0)
10.386        (0.98173 1.8722e-05 0)
10.387        (0.98173 1.87213e-05 0)
10.388        (0.981731 1.87205e-05 0)
10.389        (0.981731 1.87198e-05 0)
10.39         (0.981732 1.87191e-05 0)
10.391        (0.981732 1.87183e-05 0)
10.392        (0.981732 1.87176e-05 0)
10.393        (0.981733 1.87168e-05 0)
10.394        (0.981733 1.87161e-05 0)
10.395        (0.981733 1.87153e-05 0)
10.396        (0.981734 1.87146e-05 0)
10.397        (0.981734 1.87138e-05 0)
10.398        (0.981734 1.87131e-05 0)
10.399        (0.981735 1.87124e-05 0)
10.4          (0.981735 1.87116e-05 0)
10.401        (0.981736 1.87109e-05 0)
10.402        (0.981736 1.87102e-05 0)
10.403        (0.981736 1.87094e-05 0)
10.404        (0.981737 1.87087e-05 0)
10.405        (0.981737 1.87079e-05 0)
10.406        (0.981737 1.87072e-05 0)
10.407        (0.981738 1.87065e-05 0)
10.408        (0.981738 1.87057e-05 0)
10.409        (0.981739 1.8705e-05 0)
10.41         (0.981739 1.87042e-05 0)
10.411        (0.981739 1.87035e-05 0)
10.412        (0.98174 1.87028e-05 0)
10.413        (0.98174 1.8702e-05 0)
10.414        (0.98174 1.87013e-05 0)
10.415        (0.981741 1.87005e-05 0)
10.416        (0.981741 1.86998e-05 0)
10.417        (0.981741 1.8699e-05 0)
10.418        (0.981742 1.86983e-05 0)
10.419        (0.981742 1.86975e-05 0)
10.42         (0.981743 1.86968e-05 0)
10.421        (0.981743 1.86961e-05 0)
10.422        (0.981743 1.86953e-05 0)
10.423        (0.981744 1.86946e-05 0)
10.424        (0.981744 1.86939e-05 0)
10.425        (0.981744 1.86931e-05 0)
10.426        (0.981745 1.86924e-05 0)
10.427        (0.981745 1.86916e-05 0)
10.428        (0.981746 1.86909e-05 0)
10.429        (0.981746 1.86901e-05 0)
10.43         (0.981746 1.86894e-05 0)
10.431        (0.981747 1.86887e-05 0)
10.432        (0.981747 1.86879e-05 0)
10.433        (0.981747 1.86872e-05 0)
10.434        (0.981748 1.86864e-05 0)
10.435        (0.981748 1.86857e-05 0)
10.436        (0.981748 1.8685e-05 0)
10.437        (0.981749 1.86842e-05 0)
10.438        (0.981749 1.86835e-05 0)
10.439        (0.98175 1.86827e-05 0)
10.44         (0.98175 1.8682e-05 0)
10.441        (0.98175 1.86813e-05 0)
10.442        (0.981751 1.86805e-05 0)
10.443        (0.981751 1.86798e-05 0)
10.444        (0.981751 1.8679e-05 0)
10.445        (0.981752 1.86783e-05 0)
10.446        (0.981752 1.86775e-05 0)
10.447        (0.981752 1.86768e-05 0)
10.448        (0.981753 1.86761e-05 0)
10.449        (0.981753 1.86753e-05 0)
10.45         (0.981754 1.86746e-05 0)
10.451        (0.981754 1.86739e-05 0)
10.452        (0.981754 1.86731e-05 0)
10.453        (0.981755 1.86724e-05 0)
10.454        (0.981755 1.86716e-05 0)
10.455        (0.981755 1.86709e-05 0)
10.456        (0.981756 1.86701e-05 0)
10.457        (0.981756 1.86694e-05 0)
10.458        (0.981757 1.86687e-05 0)
10.459        (0.981757 1.86679e-05 0)
10.46         (0.981757 1.86672e-05 0)
10.461        (0.981758 1.86664e-05 0)
10.462        (0.981758 1.86657e-05 0)
10.463        (0.981758 1.86649e-05 0)
10.464        (0.981759 1.86642e-05 0)
10.465        (0.981759 1.86635e-05 0)
10.466        (0.981759 1.86627e-05 0)
10.467        (0.98176 1.8662e-05 0)
10.468        (0.98176 1.86612e-05 0)
10.469        (0.981761 1.86605e-05 0)
10.47         (0.981761 1.86598e-05 0)
10.471        (0.981761 1.8659e-05 0)
10.472        (0.981762 1.86583e-05 0)
10.473        (0.981762 1.86575e-05 0)
10.474        (0.981762 1.86568e-05 0)
10.475        (0.981763 1.86561e-05 0)
10.476        (0.981763 1.86553e-05 0)
10.477        (0.981764 1.86546e-05 0)
10.478        (0.981764 1.86538e-05 0)
10.479        (0.981764 1.86531e-05 0)
10.48         (0.981765 1.86523e-05 0)
10.481        (0.981765 1.86516e-05 0)
10.482        (0.981765 1.86509e-05 0)
10.483        (0.981766 1.86501e-05 0)
10.484        (0.981766 1.86494e-05 0)
10.485        (0.981766 1.86486e-05 0)
10.486        (0.981767 1.86479e-05 0)
10.487        (0.981767 1.86472e-05 0)
10.488        (0.981768 1.86464e-05 0)
10.489        (0.981768 1.86457e-05 0)
10.49         (0.981768 1.86449e-05 0)
10.491        (0.981769 1.86442e-05 0)
10.492        (0.981769 1.86434e-05 0)
10.493        (0.981769 1.86427e-05 0)
10.494        (0.98177 1.8642e-05 0)
10.495        (0.98177 1.86412e-05 0)
10.496        (0.981771 1.86405e-05 0)
10.497        (0.981771 1.86397e-05 0)
10.498        (0.981771 1.8639e-05 0)
10.499        (0.981772 1.86382e-05 0)
10.5          (0.981772 1.86375e-05 0)
10.501        (0.981772 1.86368e-05 0)
10.502        (0.981773 1.8636e-05 0)
10.503        (0.981773 1.86353e-05 0)
10.504        (0.981773 1.86345e-05 0)
10.505        (0.981774 1.86338e-05 0)
10.506        (0.981774 1.86331e-05 0)
10.507        (0.981775 1.86323e-05 0)
10.508        (0.981775 1.86316e-05 0)
10.509        (0.981775 1.86308e-05 0)
10.51         (0.981776 1.86301e-05 0)
10.511        (0.981776 1.86293e-05 0)
10.512        (0.981776 1.86286e-05 0)
10.513        (0.981777 1.86279e-05 0)
10.514        (0.981777 1.86271e-05 0)
10.515        (0.981778 1.86264e-05 0)
10.516        (0.981778 1.86256e-05 0)
10.517        (0.981778 1.86249e-05 0)
10.518        (0.981779 1.86241e-05 0)
10.519        (0.981779 1.86234e-05 0)
10.52         (0.981779 1.86227e-05 0)
10.521        (0.98178 1.86219e-05 0)
10.522        (0.98178 1.86212e-05 0)
10.523        (0.98178 1.86204e-05 0)
10.524        (0.981781 1.86197e-05 0)
10.525        (0.981781 1.8619e-05 0)
10.526        (0.981782 1.86182e-05 0)
10.527        (0.981782 1.86175e-05 0)
10.528        (0.981782 1.86167e-05 0)
10.529        (0.981783 1.8616e-05 0)
10.53         (0.981783 1.86153e-05 0)
10.531        (0.981783 1.86145e-05 0)
10.532        (0.981784 1.86138e-05 0)
10.533        (0.981784 1.8613e-05 0)
10.534        (0.981784 1.86123e-05 0)
10.535        (0.981785 1.86115e-05 0)
10.536        (0.981785 1.86108e-05 0)
10.537        (0.981786 1.86101e-05 0)
10.538        (0.981786 1.86093e-05 0)
10.539        (0.981786 1.86086e-05 0)
10.54         (0.981787 1.86078e-05 0)
10.541        (0.981787 1.86071e-05 0)
10.542        (0.981787 1.86063e-05 0)
10.543        (0.981788 1.86056e-05 0)
10.544        (0.981788 1.86049e-05 0)
10.545        (0.981789 1.86041e-05 0)
10.546        (0.981789 1.86034e-05 0)
10.547        (0.981789 1.86026e-05 0)
10.548        (0.98179 1.86019e-05 0)
10.549        (0.98179 1.86011e-05 0)
10.55         (0.98179 1.86004e-05 0)
10.551        (0.981791 1.85997e-05 0)
10.552        (0.981791 1.85989e-05 0)
10.553        (0.981791 1.85982e-05 0)
10.554        (0.981792 1.85974e-05 0)
10.555        (0.981792 1.85967e-05 0)
10.556        (0.981793 1.8596e-05 0)
10.557        (0.981793 1.85952e-05 0)
10.558        (0.981793 1.85945e-05 0)
10.559        (0.981794 1.85937e-05 0)
10.56         (0.981794 1.8593e-05 0)
10.561        (0.981794 1.85922e-05 0)
10.562        (0.981795 1.85915e-05 0)
10.563        (0.981795 1.85908e-05 0)
10.564        (0.981796 1.859e-05 0)
10.565        (0.981796 1.85893e-05 0)
10.566        (0.981796 1.85885e-05 0)
10.567        (0.981797 1.85878e-05 0)
10.568        (0.981797 1.8587e-05 0)
10.569        (0.981797 1.85863e-05 0)
10.57         (0.981798 1.85856e-05 0)
10.571        (0.981798 1.85848e-05 0)
10.572        (0.981798 1.85841e-05 0)
10.573        (0.981799 1.85833e-05 0)
10.574        (0.981799 1.85826e-05 0)
10.575        (0.9818 1.85818e-05 0)
10.576        (0.9818 1.85811e-05 0)
10.577        (0.9818 1.85804e-05 0)
10.578        (0.981801 1.85796e-05 0)
10.579        (0.981801 1.85789e-05 0)
10.58         (0.981801 1.85781e-05 0)
10.581        (0.981802 1.85774e-05 0)
10.582        (0.981802 1.85767e-05 0)
10.583        (0.981803 1.85759e-05 0)
10.584        (0.981803 1.85752e-05 0)
10.585        (0.981803 1.85744e-05 0)
10.586        (0.981804 1.85737e-05 0)
10.587        (0.981804 1.85729e-05 0)
10.588        (0.981804 1.85722e-05 0)
10.589        (0.981805 1.85714e-05 0)
10.59         (0.981805 1.85707e-05 0)
10.591        (0.981805 1.857e-05 0)
10.592        (0.981806 1.85692e-05 0)
10.593        (0.981806 1.85685e-05 0)
10.594        (0.981807 1.85677e-05 0)
10.595        (0.981807 1.8567e-05 0)
10.596        (0.981807 1.85662e-05 0)
10.597        (0.981808 1.85655e-05 0)
10.598        (0.981808 1.85648e-05 0)
10.599        (0.981808 1.8564e-05 0)
10.6          (0.981809 1.85633e-05 0)
10.601        (0.981809 1.85625e-05 0)
10.602        (0.981809 1.85618e-05 0)
10.603        (0.98181 1.8561e-05 0)
10.604        (0.98181 1.85603e-05 0)
10.605        (0.981811 1.85596e-05 0)
10.606        (0.981811 1.85588e-05 0)
10.607        (0.981811 1.85581e-05 0)
10.608        (0.981812 1.85573e-05 0)
10.609        (0.981812 1.85566e-05 0)
10.61         (0.981812 1.85558e-05 0)
10.611        (0.981813 1.85551e-05 0)
10.612        (0.981813 1.85544e-05 0)
10.613        (0.981814 1.85536e-05 0)
10.614        (0.981814 1.85529e-05 0)
10.615        (0.981814 1.85521e-05 0)
10.616        (0.981815 1.85514e-05 0)
10.617        (0.981815 1.85507e-05 0)
10.618        (0.981815 1.85499e-05 0)
10.619        (0.981816 1.85492e-05 0)
10.62         (0.981816 1.85484e-05 0)
10.621        (0.981816 1.85477e-05 0)
10.622        (0.981817 1.85469e-05 0)
10.623        (0.981817 1.85462e-05 0)
10.624        (0.981818 1.85454e-05 0)
10.625        (0.981818 1.85447e-05 0)
10.626        (0.981818 1.8544e-05 0)
10.627        (0.981819 1.85432e-05 0)
10.628        (0.981819 1.85425e-05 0)
10.629        (0.981819 1.85417e-05 0)
10.63         (0.98182 1.8541e-05 0)
10.631        (0.98182 1.85402e-05 0)
10.632        (0.981821 1.85395e-05 0)
10.633        (0.981821 1.85388e-05 0)
10.634        (0.981821 1.8538e-05 0)
10.635        (0.981822 1.85373e-05 0)
10.636        (0.981822 1.85365e-05 0)
10.637        (0.981822 1.85358e-05 0)
10.638        (0.981823 1.8535e-05 0)
10.639        (0.981823 1.85343e-05 0)
10.64         (0.981823 1.85336e-05 0)
10.641        (0.981824 1.85328e-05 0)
10.642        (0.981824 1.85321e-05 0)
10.643        (0.981825 1.85313e-05 0)
10.644        (0.981825 1.85306e-05 0)
10.645        (0.981825 1.85298e-05 0)
10.646        (0.981826 1.85291e-05 0)
10.647        (0.981826 1.85283e-05 0)
10.648        (0.981826 1.85276e-05 0)
10.649        (0.981827 1.85269e-05 0)
10.65         (0.981827 1.85261e-05 0)
10.651        (0.981827 1.85254e-05 0)
10.652        (0.981828 1.85247e-05 0)
10.653        (0.981828 1.85239e-05 0)
10.654        (0.981829 1.85232e-05 0)
10.655        (0.981829 1.85224e-05 0)
10.656        (0.981829 1.85217e-05 0)
10.657        (0.98183 1.85209e-05 0)
10.658        (0.98183 1.85202e-05 0)
10.659        (0.98183 1.85194e-05 0)
10.66         (0.981831 1.85187e-05 0)
10.661        (0.981831 1.85179e-05 0)
10.662        (0.981832 1.85172e-05 0)
10.663        (0.981832 1.85165e-05 0)
10.664        (0.981832 1.85157e-05 0)
10.665        (0.981833 1.8515e-05 0)
10.666        (0.981833 1.85142e-05 0)
10.667        (0.981833 1.85135e-05 0)
10.668        (0.981834 1.85128e-05 0)
10.669        (0.981834 1.8512e-05 0)
10.67         (0.981834 1.85113e-05 0)
10.671        (0.981835 1.85105e-05 0)
10.672        (0.981835 1.85098e-05 0)
10.673        (0.981836 1.8509e-05 0)
10.674        (0.981836 1.85083e-05 0)
10.675        (0.981836 1.85075e-05 0)
10.676        (0.981837 1.85068e-05 0)
10.677        (0.981837 1.85061e-05 0)
10.678        (0.981837 1.85053e-05 0)
10.679        (0.981838 1.85046e-05 0)
10.68         (0.981838 1.85038e-05 0)
10.681        (0.981839 1.85031e-05 0)
10.682        (0.981839 1.85024e-05 0)
10.683        (0.981839 1.85016e-05 0)
10.684        (0.98184 1.85009e-05 0)
10.685        (0.98184 1.85001e-05 0)
10.686        (0.98184 1.84994e-05 0)
10.687        (0.981841 1.84986e-05 0)
10.688        (0.981841 1.84979e-05 0)
10.689        (0.981841 1.84972e-05 0)
10.69         (0.981842 1.84964e-05 0)
10.691        (0.981842 1.84957e-05 0)
10.692        (0.981843 1.84949e-05 0)
10.693        (0.981843 1.84942e-05 0)
10.694        (0.981843 1.84934e-05 0)
10.695        (0.981844 1.84927e-05 0)
10.696        (0.981844 1.8492e-05 0)
10.697        (0.981844 1.84912e-05 0)
10.698        (0.981845 1.84905e-05 0)
10.699        (0.981845 1.84897e-05 0)
10.7          (0.981845 1.8489e-05 0)
10.701        (0.981846 1.84882e-05 0)
10.702        (0.981846 1.84875e-05 0)
10.703        (0.981847 1.84867e-05 0)
10.704        (0.981847 1.8486e-05 0)
10.705        (0.981847 1.84853e-05 0)
10.706        (0.981848 1.84845e-05 0)
10.707        (0.981848 1.84838e-05 0)
10.708        (0.981848 1.8483e-05 0)
10.709        (0.981849 1.84823e-05 0)
10.71         (0.981849 1.84816e-05 0)
10.711        (0.98185 1.84808e-05 0)
10.712        (0.98185 1.84801e-05 0)
10.713        (0.98185 1.84793e-05 0)
10.714        (0.981851 1.84786e-05 0)
10.715        (0.981851 1.84778e-05 0)
10.716        (0.981851 1.84771e-05 0)
10.717        (0.981852 1.84764e-05 0)
10.718        (0.981852 1.84756e-05 0)
10.719        (0.981852 1.84749e-05 0)
10.72         (0.981853 1.84741e-05 0)
10.721        (0.981853 1.84734e-05 0)
10.722        (0.981854 1.84726e-05 0)
10.723        (0.981854 1.84719e-05 0)
10.724        (0.981854 1.84712e-05 0)
10.725        (0.981855 1.84704e-05 0)
10.726        (0.981855 1.84697e-05 0)
10.727        (0.981855 1.84689e-05 0)
10.728        (0.981856 1.84682e-05 0)
10.729        (0.981856 1.84674e-05 0)
10.73         (0.981856 1.84667e-05 0)
10.731        (0.981857 1.84659e-05 0)
10.732        (0.981857 1.84652e-05 0)
10.733        (0.981858 1.84645e-05 0)
10.734        (0.981858 1.84637e-05 0)
10.735        (0.981858 1.8463e-05 0)
10.736        (0.981859 1.84622e-05 0)
10.737        (0.981859 1.84615e-05 0)
10.738        (0.981859 1.84607e-05 0)
10.739        (0.98186 1.846e-05 0)
10.74         (0.98186 1.84592e-05 0)
10.741        (0.981861 1.84585e-05 0)
10.742        (0.981861 1.84578e-05 0)
10.743        (0.981861 1.8457e-05 0)
10.744        (0.981862 1.84563e-05 0)
10.745        (0.981862 1.84555e-05 0)
10.746        (0.981862 1.84548e-05 0)
10.747        (0.981863 1.8454e-05 0)
10.748        (0.981863 1.84533e-05 0)
10.749        (0.981863 1.84526e-05 0)
10.75         (0.981864 1.84518e-05 0)
10.751        (0.981864 1.84511e-05 0)
10.752        (0.981865 1.84503e-05 0)
10.753        (0.981865 1.84496e-05 0)
10.754        (0.981865 1.84489e-05 0)
10.755        (0.981866 1.84481e-05 0)
10.756        (0.981866 1.84474e-05 0)
10.757        (0.981866 1.84466e-05 0)
10.758        (0.981867 1.84459e-05 0)
10.759        (0.981867 1.84451e-05 0)
10.76         (0.981867 1.84444e-05 0)
10.761        (0.981868 1.84437e-05 0)
10.762        (0.981868 1.84429e-05 0)
10.763        (0.981869 1.84422e-05 0)
10.764        (0.981869 1.84414e-05 0)
10.765        (0.981869 1.84407e-05 0)
10.766        (0.98187 1.84399e-05 0)
10.767        (0.98187 1.84392e-05 0)
10.768        (0.98187 1.84384e-05 0)
10.769        (0.981871 1.84377e-05 0)
10.77         (0.981871 1.8437e-05 0)
10.771        (0.981872 1.84362e-05 0)
10.772        (0.981872 1.84355e-05 0)