/*--------------------------------*- C++ -*----------------------------------*\
| =========                 |                                                 |
| \\      /  F ield         | OpenFOAM: The Open Source CFD Toolbox           |
|  \\    /   O peration     | Version:  2406                                  |
|   \\  /    A nd           | Website:  www.openfoam.com                      |
|    \\/     M anipulation  |                                                 |
\*---------------------------------------------------------------------------*/
FoamFile
{
    version     2.0;
    format      ascii;
    arch        "LSB;label=32;scalar=64";
    class       volScalarField;
    location    "6.975";
    object      p;
}
// * * * * * * * * * * * * * * * * * * * * * * * * * * * * * * * * * * * * * //

dimensions      [0 2 -2 0 0 0 0];

internalField   nonuniform List<scalar> 
40000
(
1.7514e-07
-6.22096e-06
-1.23553e-05
-1.8044e-05
-2.36698e-05
-2.93236e-05
-3.49874e-05
-4.06552e-05
-4.63367e-05
-5.20443e-05
-5.77911e-05
-6.35918e-05
-6.94627e-05
-7.54223e-05
-8.14908e-05
-8.76904e-05
-9.40449e-05
-0.00010058
-0.000107323
-0.000114304
-0.000121554
-0.000129104
-0.00013699
-0.000145248
-0.000153915
-0.000163031
-0.000172637
-0.000182775
-0.00019349
-0.000204829
-0.000216839
-0.000229569
-0.000243072
-0.000257401
-0.000272612
-0.000288762
-0.000305914
-0.000324129
-0.000343475
-0.000364021
-0.00038584
-0.00040901
-0.000433611
-0.00045973
-0.000487459
-0.000516896
-0.000548145
-0.000581317
-0.000616533
-0.000653922
-0.000693622
-0.000735786
-0.000780576
-0.000828171
-0.000878764
-0.000932567
-0.000989814
-0.00105076
-0.00111568
-0.0011849
-0.00125876
-0.00133765
-0.001422
-0.0015123
-0.00160911
-0.00171306
-0.00182488
-0.00194541
-0.00207562
-0.00221667
-0.00236991
-0.00253698
-0.00271979
-0.0029207
-0.00314254
-0.00338875
-0.00366352
-0.00397194
-0.00432021
-0.00471585
-0.00516787
-0.00568706
-0.00628613
-0.00697983
-0.00778498
-0.00872031
-0.00980598
-0.0110629
-0.0125118
-0.0141715
-0.0160575
-0.0181799
-0.0205415
-0.0231362
-0.025948
-0.0289504
-0.0321072
-0.0353739
-0.0387003
-0.0420334
-0.000291747
-0.000297723
-0.000303443
-0.000308764
-0.000314051
-0.000319388
-0.000324757
-0.000330155
-0.000335592
-0.000341082
-0.000346638
-0.000352276
-0.000358014
-0.000363872
-0.000369871
-0.000376034
-0.000382388
-0.000388958
-0.000395775
-0.000402868
-0.000410272
-0.000418019
-0.000426147
-0.000434693
-0.000443697
-0.0004532
-0.000463247
-0.000473881
-0.000485149
-0.000497101
-0.000509787
-0.00052326
-0.000537574
-0.000552786
-0.000568955
-0.000586144
-0.000604417
-0.000623841
-0.000644488
-0.000666432
-0.000689751
-0.000714528
-0.000740851
-0.000768813
-0.000798513
-0.000830057
-0.000863556
-0.000899133
-0.000936917
-0.000977049
-0.00101968
-0.00106497
-0.00111311
-0.00116428
-0.0012187
-0.0012766
-0.00133823
-0.00140388
-0.00147385
-0.00154848
-0.00162817
-0.00171332
-0.00180443
-0.00190203
-0.00200672
-0.00211922
-0.00224031
-0.00237093
-0.00251215
-0.00266524
-0.00283169
-0.00301328
-0.00321215
-0.00343086
-0.0036725
-0.00394085
-0.00424046
-0.00457689
-0.00495687
-0.00538851
-0.00588155
-0.00644758
-0.00710015
-0.00785496
-0.00872975
-0.00974408
-0.0109188
-0.0122753
-0.0138343
-0.015614
-0.0176288
-0.0198869
-0.0223886
-0.0251247
-0.0280755
-0.0312109
-0.0344914
-0.0378699
-0.0412943
-0.044711
-0.000580911
-0.000586433
-0.000591734
-0.000596688
-0.000601632
-0.000606646
-0.000611714
-0.000616834
-0.000622018
-0.000627281
-0.000632637
-0.000638104
-0.000643699
-0.000649444
-0.000655362
-0.000661477
-0.000667816
-0.000674408
-0.000681283
-0.000688473
-0.000696012
-0.000703937
-0.000712286
-0.000721097
-0.000730414
-0.000740279
-0.000750737
-0.000761837
-0.000773627
-0.000786158
-0.000799483
-0.000813659
-0.000828742
-0.000844793
-0.000861874
-0.000880052
-0.000899394
-0.000919972
-0.000941861
-0.000965142
-0.000989897
-0.00101621
-0.00104419
-0.00107392
-0.00110551
-0.00113908
-0.00117475
-0.00121264
-0.0012529
-0.00129568
-0.00134114
-0.00138945
-0.00144082
-0.00149546
-0.00155358
-0.00161544
-0.00168133
-0.00175153
-0.0018264
-0.0019063
-0.00199164
-0.00208289
-0.00218057
-0.00228526
-0.00239764
-0.00251845
-0.00264858
-0.00278903
-0.00294098
-0.0031058
-0.00328511
-0.00348086
-0.00369535
-0.00393136
-0.00419225
-0.00448207
-0.00480576
-0.00516927
-0.00557983
-0.00604612
-0.00657851
-0.00718929
-0.00789281
-0.00870554
-0.00964599
-0.0107344
-0.0119922
-0.013441
-0.0151011
-0.0169905
-0.019122
-0.0215021
-0.0241286
-0.0269895
-0.0300619
-0.0333127
-0.0366997
-0.0401737
-0.0436818
-0.0471703
-0.000866664
-0.000871732
-0.000876617
-0.000881206
-0.000885809
-0.0008905
-0.000895265
-0.000900107
-0.000905036
-0.000910069
-0.00091522
-0.000920509
-0.000925954
-0.000931579
-0.000937406
-0.000943462
-0.000949775
-0.000956374
-0.000963291
-0.000970559
-0.000978215
-0.000986297
-0.000994842
-0.00100389
-0.00101349
-0.00102369
-0.00103453
-0.00104606
-0.00105833
-0.0010714
-0.00108532
-0.00110015
-0.00111595
-0.00113279
-0.00115072
-0.00116983
-0.00119018
-0.00121184
-0.0012349
-0.00125944
-0.00128555
-0.00131333
-0.00134286
-0.00137427
-0.00140766
-0.00144315
-0.00148087
-0.00152097
-0.00156358
-0.00160888
-0.00165704
-0.00170824
-0.0017627
-0.00182064
-0.00188231
-0.00194797
-0.00201793
-0.00209251
-0.00217207
-0.00225702
-0.0023478
-0.00244491
-0.0025489
-0.00266043
-0.00278019
-0.00290902
-0.00304785
-0.00319777
-0.00336004
-0.00353615
-0.00372784
-0.0039372
-0.00416669
-0.00441931
-0.00469864
-0.00500902
-0.0053557
-0.00574502
-0.00618463
-0.00668373
-0.00725325
-0.0079061
-0.00865728
-0.00952393
-0.0105252
-0.0116819
-0.0130157
-0.0145483
-0.0162999
-0.0182875
-0.020523
-0.0230108
-0.0257468
-0.0287162
-0.0318937
-0.0352436
-0.0387217
-0.0422775
-0.0458574
-0.0494084
-0.0011485
-0.00115312
-0.00115759
-0.00116182
-0.00116608
-0.00117045
-0.00117491
-0.00117947
-0.00118415
-0.00118895
-0.00119389
-0.00119899
-0.00120428
-0.00120978
-0.00121551
-0.00122149
-0.00122776
-0.00123435
-0.0012413
-0.00124862
-0.00125638
-0.00126459
-0.00127331
-0.00128257
-0.00129242
-0.00130291
-0.00131409
-0.00132601
-0.00133872
-0.00135228
-0.00136674
-0.00138217
-0.00139864
-0.00141619
-0.00143492
-0.00145488
-0.00147616
-0.00149882
-0.00152297
-0.00154868
-0.00157605
-0.00160518
-0.00163618
-0.00166915
-0.00170422
-0.00174151
-0.00178116
-0.00182332
-0.00186815
-0.00191581
-0.00196651
-0.00202043
-0.00207781
-0.00213887
-0.00220389
-0.00227314
-0.00234696
-0.00242568
-0.00250969
-0.00259943
-0.00269537
-0.00279804
-0.00290804
-0.00302606
-0.00315285
-0.0032893
-0.0034364
-0.00359532
-0.00376741
-0.00395425
-0.0041577
-0.00437998
-0.00462371
-0.00489205
-0.00518882
-0.00551858
-0.00588689
-0.00630042
-0.00676721
-0.00729688
-0.00790085
-0.00859255
-0.00938753
-0.0103035
-0.01136
-0.0125783
-0.0139803
-0.0155877
-0.0174202
-0.0194943
-0.0218205
-0.0244018
-0.027232
-0.0302944
-0.0335615
-0.0369957
-0.0405512
-0.0441767
-0.0478188
-0.0514249
-0.00142595
-0.00143013
-0.00143419
-0.00143806
-0.00144199
-0.00144604
-0.0014502
-0.00145448
-0.0014589
-0.00146346
-0.0014682
-0.00147311
-0.00147824
-0.0014836
-0.00148922
-0.00149512
-0.00150134
-0.00150791
-0.00151486
-0.00152223
-0.00153005
-0.00153837
-0.00154723
-0.00155667
-0.00156674
-0.00157749
-0.00158897
-0.00160123
-0.00161433
-0.00162832
-0.00164327
-0.00165924
-0.00167629
-0.0016945
-0.00171394
-0.00173467
-0.00175679
-0.00178037
-0.00180551
-0.00183229
-0.00186081
-0.00189118
-0.00192351
-0.00195792
-0.00199453
-0.00203347
-0.0020749
-0.00211897
-0.00216585
-0.00221571
-0.00226876
-0.00232521
-0.00238529
-0.00244926
-0.00251739
-0.00259
-0.00266742
-0.00275001
-0.00283819
-0.00293241
-0.00303318
-0.00314107
-0.00325671
-0.00338081
-0.0035142
-0.0036578
-0.00381267
-0.00398005
-0.00416136
-0.00435826
-0.00457274
-0.00480711
-0.00506415
-0.00534717
-0.00566018
-0.00600796
-0.00639632
-0.0068322
-0.00732399
-0.00788165
-0.00851701
-0.00924392
-0.0100784
-0.0110384
-0.0121441
-0.0134169
-0.0148788
-0.0165513
-0.018454
-0.0206024
-0.0230061
-0.0256667
-0.0285766
-0.0317172
-0.0350594
-0.0385642
-0.0421849
-0.0458698
-0.0495657
-0.0532209
-0.00169861
-0.00170235
-0.00170602
-0.00170954
-0.00171314
-0.00171687
-0.00172074
-0.00172475
-0.00172891
-0.00173324
-0.00173775
-0.00174248
-0.00174744
-0.00175266
-0.00175816
-0.00176397
-0.00177012
-0.00177665
-0.00178359
-0.00179097
-0.00179885
-0.00180724
-0.00181621
-0.0018258
-0.00183605
-0.00184701
-0.00185874
-0.0018713
-0.00188473
-0.0018991
-0.00191447
-0.00193091
-0.00194848
-0.00196726
-0.00198732
-0.00200874
-0.00203161
-0.002056
-0.00208201
-0.00210974
-0.0021393
-0.00217078
-0.00220431
-0.00224001
-0.00227801
-0.00231845
-0.00236149
-0.00240729
-0.00245602
-0.00250788
-0.00256308
-0.00262183
-0.00268439
-0.00275102
-0.00282202
-0.0028977
-0.00297843
-0.00306458
-0.0031566
-0.00325496
-0.0033602
-0.00347291
-0.00359376
-0.0037235
-0.003863
-0.00401322
-0.00417529
-0.00435049
-0.00454033
-0.00474655
-0.00497121
-0.00521674
-0.00548604
-0.00578257
-0.00611047
-0.00647473
-0.00688134
-0.00733751
-0.00785187
-0.00843468
-0.00909809
-0.00985627
-0.0107255
-0.0117242
-0.0128727
-0.0141924
-0.0157055
-0.0174334
-0.0193952
-0.0216057
-0.0240738
-0.0268001
-0.0297754
-0.0329802
-0.036384
-0.0399471
-0.0436221
-0.0473572
-0.0510997
-0.0547989
-0.00196612
-0.00196944
-0.00197272
-0.0019759
-0.00197917
-0.0019826
-0.00198618
-0.00198992
-0.00199382
-0.00199792
-0.00200223
-0.00200677
-0.00201156
-0.00201662
-0.002022
-0.00202771
-0.00203378
-0.00204025
-0.00204716
-0.00205454
-0.00206243
-0.00207088
-0.00207993
-0.00208962
-0.00210001
-0.00211115
-0.00212308
-0.00213587
-0.00214958
-0.00216426
-0.00217998
-0.00219681
-0.00221482
-0.00223409
-0.00225468
-0.00227669
-0.00230019
-0.00232528
-0.00235205
-0.00238061
-0.00241106
-0.00244351
-0.00247809
-0.00251492
-0.00255415
-0.00259591
-0.00264037
-0.00268771
-0.00273809
-0.00279173
-0.00284884
-0.00290966
-0.00297444
-0.00304347
-0.00311704
-0.0031955
-0.00327922
-0.0033686
-0.0034641
-0.00356622
-0.00367551
-0.0037926
-0.0039182
-0.00405308
-0.00419814
-0.0043544
-0.00452303
-0.00470537
-0.00490299
-0.00511768
-0.00535161
-0.00560728
-0.0058877
-0.00619643
-0.00653776
-0.00691682
-0.00733977
-0.007814
-0.00834833
-0.00895327
-0.00964117
-0.0104264
-0.0113256
-0.0123573
-0.0135418
-0.0149008
-0.0164564
-0.0182298
-0.0202396
-0.0225004
-0.0250201
-0.0277987
-0.0308261
-0.0340818
-0.0375348
-0.0411446
-0.0448639
-0.0486409
-0.0524236
-0.0561619
-0.00222818
-0.00223109
-0.002234
-0.00223685
-0.00223982
-0.00224295
-0.00224625
-0.00224972
-0.00225338
-0.00225725
-0.00226134
-0.00226569
-0.00227031
-0.00227522
-0.00228046
-0.00228605
-0.00229204
-0.00229844
-0.0023053
-0.00231265
-0.00232054
-0.00232901
-0.0023381
-0.00234786
-0.00235834
-0.0023696
-0.00238168
-0.00239465
-0.00240857
-0.00242349
-0.00243949
-0.00245664
-0.002475
-0.00249465
-0.00251568
-0.00253816
-0.00256219
-0.00258786
-0.00261527
-0.00264451
-0.00267571
-0.00270898
-0.00274445
-0.00278225
-0.00282251
-0.00286541
-0.00291109
-0.00295975
-0.00301156
-0.00306675
-0.00312553
-0.00318815
-0.00325487
-0.003326
-0.00340185
-0.00348276
-0.00356912
-0.00366137
-0.00375996
-0.00386542
-0.00397833
-0.00409934
-0.00422917
-0.00436865
-0.0045187
-0.00468037
-0.00485488
-0.00504362
-0.00524819
-0.00547048
-0.00571269
-0.00597741
-0.00626771
-0.00658728
-0.00694048
-0.00733257
-0.00776983
-0.00825977
-0.00881138
-0.0094353
-0.010144
-0.0109521
-0.0118762
-0.012935
-0.0141489
-0.0155396
-0.0171289
-0.018938
-0.0209852
-0.0232845
-0.0258436
-0.0286616
-0.0317283
-0.0350224
-0.0385128
-0.0421587
-0.045913
-0.0497243
-0.053541
-0.0573139
-0.00248453
-0.00248706
-0.00248962
-0.00249215
-0.00249482
-0.00249767
-0.0025007
-0.00250391
-0.00250733
-0.00251098
-0.00251487
-0.00251902
-0.00252347
-0.00252822
-0.00253332
-0.00253879
-0.00254467
-0.00255098
-0.00255777
-0.00256508
-0.00257293
-0.00258139
-0.00259049
-0.00260028
-0.00261081
-0.00262214
-0.00263432
-0.00264741
-0.00266147
-0.00267656
-0.00269276
-0.00271013
-0.00272875
-0.0027487
-0.00277005
-0.0027929
-0.00281734
-0.00284345
-0.00287135
-0.00290114
-0.00293294
-0.00296686
-0.00300304
-0.00304162
-0.00308274
-0.00312656
-0.00317325
-0.003223
-0.00327601
-0.00333249
-0.00339268
-0.00345682
-0.0035252
-0.00359812
-0.00367591
-0.00375893
-0.00384758
-0.00394229
-0.00404357
-0.00415193
-0.004268
-0.00439242
-0.00452597
-0.00466947
-0.00482389
-0.00499032
-0.00516999
-0.00536435
-0.00557503
-0.00580398
-0.00605343
-0.00632605
-0.00662498
-0.00695395
-0.00731742
-0.0077207
-0.00817018
-0.00867345
-0.00923957
-0.00987926
-0.0106051
-0.0114317
-0.0123758
-0.0134559
-0.0146926
-0.0161073
-0.0177219
-0.0195571
-0.0216312
-0.0239579
-0.0265444
-0.0293899
-0.0324836
-0.0358044
-0.039321
-0.042993
-0.0467735
-0.0506116
-0.0544564
-0.0582593
-0.002735
-0.00273716
-0.00273938
-0.00274162
-0.00274401
-0.00274658
-0.00274935
-0.00275232
-0.00275552
-0.00275894
-0.00276263
-0.00276659
-0.00277086
-0.00277546
-0.00278041
-0.00278575
-0.00279151
-0.00279772
-0.00280442
-0.00281165
-0.00281945
-0.00282786
-0.00283693
-0.00284671
-0.00285725
-0.00286859
-0.00288081
-0.00289395
-0.00290809
-0.00292328
-0.00293959
-0.0029571
-0.00297588
-0.00299601
-0.00301758
-0.00304068
-0.00306539
-0.00309182
-0.00312007
-0.00315025
-0.00318248
-0.00321689
-0.0032536
-0.00329276
-0.00333453
-0.00337906
-0.00342654
-0.00347715
-0.00353111
-0.00358862
-0.00364993
-0.00371531
-0.00378504
-0.00385942
-0.00393881
-0.00402357
-0.00411412
-0.00421091
-0.00431443
-0.00442525
-0.00454398
-0.00467131
-0.00480801
-0.00495495
-0.00511311
-0.0052836
-0.0054677
-0.00566686
-0.00588278
-0.00611742
-0.00637306
-0.00665242
-0.00695866
-0.00729558
-0.00766767
-0.00808031
-0.00853989
-0.00905408
-0.00963195
-0.0102842
-0.0110235
-0.0118644
-0.0128235
-0.0139194
-0.0151723
-0.0166038
-0.0182353
-0.0200876
-0.0221786
-0.0245219
-0.0271247
-0.029986
-0.0330952
-0.0364315
-0.0399638
-0.0436523
-0.0474505
-0.0513084
-0.0551753
-0.0590033
-0.00297941
-0.00298124
-0.00298314
-0.0029851
-0.00298723
-0.00298955
-0.00299207
-0.00299481
-0.00299779
-0.00300101
-0.00300449
-0.00300828
-0.00301237
-0.00301681
-0.00302161
-0.00302681
-0.00303244
-0.00303853
-0.00304512
-0.00305226
-0.00305997
-0.0030683
-0.0030773
-0.00308703
-0.00309752
-0.00310883
-0.00312102
-0.00313415
-0.00314829
-0.00316349
-0.00317984
-0.00319739
-0.00321623
-0.00323645
-0.00325812
-0.00328133
-0.00330619
-0.00333279
-0.00336124
-0.00339165
-0.00342414
-0.00345885
-0.00349591
-0.00353546
-0.00357766
-0.00362269
-0.00367072
-0.00372194
-0.00377658
-0.00383485
-0.003897
-0.00396331
-0.00403406
-0.00410958
-0.00419022
-0.00427635
-0.00436841
-0.00446685
-0.00457218
-0.00468498
-0.00480588
-0.00493558
-0.00507487
-0.00522464
-0.00538588
-0.00555974
-0.0057475
-0.00595065
-0.00617091
-0.00641027
-0.00667103
-0.00695594
-0.0072682
-0.0076116
-0.00799068
-0.00841082
-0.00887843
-0.00940115
-0.00998804
-0.0106498
-0.011399
-0.01225
-0.0132193
-0.0143255
-0.0155886
-0.0170298
-0.0186704
-0.020531
-0.0226295
-0.0249793
-0.0275876
-0.0304539
-0.0335677
-0.0369088
-0.0404467
-0.0441425
-0.0479503
-0.0518207
-0.0557038
-0.0595518
-0.00321768
-0.0032192
-0.00322081
-0.00322252
-0.00322439
-0.00322648
-0.00322878
-0.0032313
-0.00323406
-0.00323708
-0.00324038
-0.00324398
-0.00324791
-0.00325218
-0.00325683
-0.00326188
-0.00326737
-0.00327333
-0.0032798
-0.00328681
-0.0032944
-0.00330263
-0.00331153
-0.00332115
-0.00333154
-0.00334277
-0.00335488
-0.00336793
-0.00338199
-0.00339713
-0.00341341
-0.00343092
-0.00344972
-0.0034699
-0.00349154
-0.00351475
-0.00353961
-0.00356624
-0.00359473
-0.0036252
-0.00365779
-0.00369261
-0.00372982
-0.00376955
-0.00381197
-0.00385726
-0.0039056
-0.00395718
-0.00401223
-0.00407098
-0.00413368
-0.00420061
-0.00427206
-0.00434837
-0.00442989
-0.00451701
-0.00461017
-0.00470983
-0.00481653
-0.00493084
-0.0050534
-0.00518493
-0.00532624
-0.00547822
-0.00564189
-0.0058184
-0.00600907
-0.00621539
-0.0064391
-0.00668219
-0.00694702
-0.0072363
-0.00755326
-0.00790172
-0.00828617
-0.00871201
-0.0091856
-0.00971454
-0.0103078
-0.0109761
-0.0117316
-0.0125888
-0.013564
-0.0146753
-0.0159427
-0.017387
-0.0190294
-0.0208902
-0.0229872
-0.0253339
-0.0279379
-0.0307987
-0.0339068
-0.0372425
-0.0407765
-0.0444705
-0.0482798
-0.0521556
-0.0560486
-0.0599112
-0.00344974
-0.00345098
-0.00345233
-0.0034538
-0.00345545
-0.00345732
-0.00345941
-0.00346173
-0.00346429
-0.00346713
-0.00347025
-0.00347368
-0.00347743
-0.00348154
-0.00348603
-0.00349093
-0.00349627
-0.00350208
-0.00350841
-0.00351527
-0.00352273
-0.00353081
-0.00353957
-0.00354904
-0.00355929
-0.00357037
-0.00358233
-0.00359524
-0.00360915
-0.00362414
-0.00364027
-0.00365762
-0.00367627
-0.00369631
-0.00371781
-0.00374087
-0.0037656
-0.0037921
-0.00382047
-0.00385084
-0.00388334
-0.00391809
-0.00395524
-0.00399494
-0.00403736
-0.00408267
-0.00413107
-0.00418275
-0.00423794
-0.00429688
-0.00435982
-0.00442705
-0.00449887
-0.00457562
-0.00465766
-0.00474538
-0.00483923
-0.00493969
-0.00504729
-0.00516263
-0.00528634
-0.00541917
-0.00556191
-0.0057155
-0.00588094
-0.00605941
-0.00625222
-0.00646089
-0.00668716
-0.00693304
-0.00720087
-0.00749338
-0.00781379
-0.00816588
-0.00855416
-0.00898393
-0.00946154
-0.00999449
-0.0105917
-0.0112635
-0.0120222
-0.0128819
-0.0138587
-0.0149703
-0.0162365
-0.0176777
-0.019315
-0.0211684
-0.0232557
-0.0255906
-0.0281808
-0.0310266
-0.0341192
-0.03744
-0.0409607
-0.0446443
-0.048447
-0.052321
-0.0562174
-0.0600888
-0.00367558
-0.00367656
-0.00367768
-0.00367894
-0.00368039
-0.00368206
-0.00368396
-0.00368609
-0.00368848
-0.00369114
-0.0036941
-0.00369736
-0.00370095
-0.0037049
-0.00370923
-0.00371397
-0.00371915
-0.0037248
-0.00373096
-0.00373766
-0.00374494
-0.00375285
-0.00376142
-0.00377071
-0.00378077
-0.00379165
-0.0038034
-0.00381608
-0.00382977
-0.00384452
-0.00386041
-0.00387751
-0.0038959
-0.00391566
-0.0039369
-0.00395969
-0.00398413
-0.00401035
-0.00403844
-0.00406853
-0.00410075
-0.00413523
-0.00417212
-0.00421158
-0.00425377
-0.00429886
-0.00434707
-0.00439859
-0.00445364
-0.00451248
-0.00457536
-0.00464257
-0.00471442
-0.00479126
-0.00487344
-0.00496138
-0.00505551
-0.00515634
-0.00526439
-0.00538027
-0.00550463
-0.00563821
-0.00578183
-0.0059364
-0.00610297
-0.0062827
-0.00647692
-0.00668714
-0.00691511
-0.00716284
-0.00743265
-0.00772727
-0.0080499
-0.00840428
-0.00879487
-0.00922692
-0.00970668
-0.0102415
-0.0108402
-0.011513
-0.0122719
-0.0131306
-0.014105
-0.0152125
-0.0164724
-0.017905
-0.0195309
-0.0213701
-0.0234401
-0.0257549
-0.0283228
-0.0311445
-0.0342125
-0.0375091
-0.0410076
-0.0446722
-0.0484604
-0.0523253
-0.0562185
-0.0600927
-0.00389522
-0.00389597
-0.00389689
-0.00389796
-0.00389924
-0.00390073
-0.00390246
-0.00390443
-0.00390666
-0.00390916
-0.00391195
-0.00391505
-0.00391849
-0.00392228
-0.00392645
-0.00393103
-0.00393604
-0.00394152
-0.0039475
-0.00395401
-0.00396109
-0.00396879
-0.00397715
-0.0039862
-0.00399601
-0.00400663
-0.00401811
-0.0040305
-0.00404388
-0.00405831
-0.00407386
-0.0040906
-0.00410862
-0.004128
-0.00414883
-0.00417121
-0.00419523
-0.00422101
-0.00424865
-0.00427829
-0.00431004
-0.00434406
-0.00438048
-0.00441947
-0.00446119
-0.00450583
-0.00455359
-0.00460468
-0.00465932
-0.00471776
-0.00478027
-0.00484715
-0.00491869
-0.00499526
-0.00507722
-0.00516498
-0.00525899
-0.00535976
-0.00546781
-0.00558376
-0.00570826
-0.00584207
-0.005986
-0.00614097
-0.00630803
-0.00648835
-0.00668325
-0.00689425
-0.00712308
-0.00737175
-0.00764256
-0.00793823
-0.0082619
-0.00861729
-0.00900877
-0.00944153
-0.00992169
-0.0104565
-0.0110545
-0.0117257
-0.0124819
-0.0133366
-0.014305
-0.0154044
-0.0166536
-0.0180724
-0.0196812
-0.0214997
-0.0235456
-0.025833
-0.0283705
-0.03116
-0.0341948
-0.0374587
-0.0409264
-0.0445638
-0.0483295
-0.0521778
-0.0560608
-0.0599314
-0.0041087
-0.00410927
-0.00411001
-0.00411093
-0.00411205
-0.0041134
-0.00411497
-0.0041168
-0.00411888
-0.00412124
-0.00412389
-0.00412684
-0.00413013
-0.00413376
-0.00413778
-0.00414218
-0.00414702
-0.00415231
-0.00415809
-0.00416439
-0.00417125
-0.00417871
-0.00418681
-0.00419559
-0.0042051
-0.0042154
-0.00422653
-0.00423857
-0.00425156
-0.00426558
-0.00428069
-0.00429698
-0.00431451
-0.00433339
-0.00435368
-0.00437551
-0.00439895
-0.00442413
-0.00445116
-0.00448016
-0.00451126
-0.00454461
-0.00458035
-0.00461865
-0.00465968
-0.00470362
-0.00475068
-0.00480106
-0.00485501
-0.00491277
-0.0049746
-0.00504081
-0.00511172
-0.00518767
-0.00526903
-0.00535624
-0.00544973
-0.00555001
-0.00565762
-0.00577317
-0.00589733
-0.00603085
-0.00617454
-0.00632933
-0.00649627
-0.00667652
-0.00687141
-0.00708243
-0.00731133
-0.00756007
-0.00783096
-0.00812665
-0.00845027
-0.00880545
-0.0091965
-0.0096285
-0.0101074
-0.0106404
-0.0112357
-0.0119032
-0.0126541
-0.0135018
-0.0144611
-0.0155488
-0.0167832
-0.0181836
-0.0197703
-0.0215626
-0.0235782
-0.0258315
-0.0283316
-0.0310811
-0.0340746
-0.0372976
-0.0407265
-0.0443285
-0.048064
-0.0518882
-0.0557541
-0.0596146
-0.0043161
-0.00431652
-0.00431713
-0.00431791
-0.00431891
-0.00432014
-0.00432159
-0.00432329
-0.00432525
-0.00432748
-0.00433
-0.00433282
-0.00433596
-0.00433945
-0.0043433
-0.00434754
-0.00435219
-0.00435729
-0.00436285
-0.00436892
-0.00437553
-0.00438271
-0.00439051
-0.00439897
-0.00440813
-0.00441805
-0.00442878
-0.00444038
-0.00445291
-0.00446642
-0.00448101
-0.00449673
-0.00451367
-0.00453191
-0.00455154
-0.00457267
-0.00459539
-0.00461981
-0.00464605
-0.00467423
-0.00470449
-0.00473697
-0.00477182
-0.00480921
-0.00484931
-0.00489231
-0.00493841
-0.00498783
-0.0050408
-0.00509757
-0.00515843
-0.00522366
-0.00529359
-0.00536858
-0.00544899
-0.00553526
-0.00562783
-0.00572721
-0.00583395
-0.00594865
-0.00607199
-0.00620471
-0.00634764
-0.0065017
-0.00666793
-0.00684748
-0.00704168
-0.00725203
-0.00748023
-0.00772823
-0.00799831
-0.00829309
-0.00861562
-0.00896947
-0.00935887
-0.00978875
-0.010265
-0.0107944
-0.0113852
-0.0120469
-0.0127904
-0.0136286
-0.0145759
-0.0156487
-0.0168648
-0.0182427
-0.0198029
-0.0215641
-0.023544
-0.0257571
-0.0282132
-0.0309159
-0.033861
-0.0370357
-0.0404178
-0.0439767
-0.0476743
-0.051467
-0.0553086
-0.0591523
-0.00451755
-0.00451786
-0.00451836
-0.00451905
-0.00451995
-0.00452108
-0.00452243
-0.00452403
-0.00452589
-0.00452801
-0.00453041
-0.0045331
-0.00453612
-0.00453946
-0.00454315
-0.00454722
-0.00455168
-0.00455657
-0.0045619
-0.00456772
-0.00457405
-0.00458092
-0.00458839
-0.00459648
-0.00460524
-0.00461473
-0.00462499
-0.00463608
-0.00464805
-0.00466098
-0.00467494
-0.00468999
-0.00470621
-0.0047237
-0.00474254
-0.00476282
-0.00478466
-0.00480816
-0.00483344
-0.00486062
-0.00488985
-0.00492126
-0.00495501
-0.00499127
-0.0050302
-0.00507201
-0.0051169
-0.00516508
-0.0052168
-0.00527231
-0.00533188
-0.00539582
-0.00546446
-0.00553814
-0.00561724
-0.0057022
-0.00579347
-0.00589155
-0.005997
-0.00611041
-0.00623247
-0.00636391
-0.00650557
-0.00665836
-0.00682331
-0.00700158
-0.00719447
-0.00740346
-0.00763025
-0.00787675
-0.00814521
-0.00843818
-0.00875867
-0.00911017
-0.00949678
-0.00992332
-0.0103955
-0.01092
-0.0115047
-0.0121587
-0.0128927
-0.0137192
-0.0146521
-0.0157072
-0.0169018
-0.0182543
-0.019784
-0.0215097
-0.0234491
-0.0256168
-0.0280233
-0.0306731
-0.0335632
-0.0366825
-0.0400108
-0.0435191
-0.0471712
-0.0509251
-0.0547352
-0.0585551
-0.00471318
-0.00471341
-0.00471384
-0.00471447
-0.0047153
-0.00471636
-0.00471764
-0.00471917
-0.00472094
-0.00472297
-0.00472527
-0.00472786
-0.00473075
-0.00473395
-0.00473749
-0.00474138
-0.00474565
-0.00475032
-0.00475541
-0.00476095
-0.00476697
-0.00477351
-0.0047806
-0.00478828
-0.00479659
-0.00480558
-0.00481531
-0.00482581
-0.00483716
-0.00484941
-0.00486263
-0.0048769
-0.0048923
-0.00490891
-0.00492681
-0.00494612
-0.00496692
-0.00498934
-0.00501348
-0.00503949
-0.00506749
-0.00509763
-0.00513006
-0.00516496
-0.00520251
-0.00524288
-0.0052863
-0.00533299
-0.00538318
-0.00543713
-0.00549513
-0.00555747
-0.00562448
-0.00569652
-0.00577398
-0.00585727
-0.00594686
-0.00604325
-0.006147
-0.0062587
-0.00637904
-0.00650875
-0.00664865
-0.00679966
-0.00696281
-0.00713923
-0.00733021
-0.00753723
-0.00776193
-0.00800623
-0.0082723
-0.00856267
-0.00888026
-0.00922847
-0.00961128
-0.0100333
-0.0105003
-0.0110185
-0.0115957
-0.0122406
-0.0129633
-0.0137762
-0.0146926
-0.0157277
-0.0168982
-0.0182222
-0.0197183
-0.021405
-0.0232999
-0.0254178
-0.0277698
-0.0303612
-0.0331905
-0.0362481
-0.0395157
-0.0429664
-0.0465659
-0.0502736
-0.054045
-0.0578341
-0.00490314
-0.00490335
-0.00490374
-0.00490433
-0.00490513
-0.00490615
-0.00490739
-0.00490886
-0.00491057
-0.00491253
-0.00491475
-0.00491725
-0.00492002
-0.0049231
-0.00492649
-0.00493021
-0.00493428
-0.00493871
-0.00494354
-0.00494879
-0.00495448
-0.00496065
-0.00496733
-0.00497455
-0.00498236
-0.00499079
-0.00499991
-0.00500976
-0.00502039
-0.00503187
-0.00504427
-0.00505765
-0.0050721
-0.0050877
-0.00510454
-0.00512272
-0.00514234
-0.0051635
-0.00518635
-0.00521099
-0.00523757
-0.00526624
-0.00529715
-0.00533047
-0.00536639
-0.00540509
-0.00544679
-0.00549172
-0.00554011
-0.00559223
-0.00564836
-0.00570879
-0.00577387
-0.00584396
-0.00591942
-0.0060007
-0.00608826
-0.00618258
-0.00628424
-0.00639383
-0.00651203
-0.00663957
-0.00677726
-0.00692602
-0.00708685
-0.0072609
-0.00744943
-0.00765388
-0.00787589
-0.00811733
-0.00838033
-0.00866735
-0.00898126
-0.00932537
-0.00970352
-0.01012
-0.0105807
-0.0110915
-0.0116599
-0.0122942
-0.0130044
-0.0138021
-0.0147002
-0.0157134
-0.0168578
-0.0181508
-0.0196106
-0.0212555
-0.0231026
-0.0251671
-0.0274604
-0.0299888
-0.0327521
-0.0357423
-0.0389431
-0.0423297
-0.0458697
-0.0495241
-0.0532498
-0.0570011
-0.00508762
-0.00508784
-0.00508824
-0.00508883
-0.00508963
-0.00509064
-0.00509186
-0.00509331
-0.00509498
-0.00509689
-0.00509905
-0.00510147
-0.00510414
-0.0051071
-0.00511034
-0.00511389
-0.00511775
-0.00512195
-0.00512651
-0.00513144
-0.00513677
-0.00514254
-0.00514876
-0.00515548
-0.00516273
-0.00517056
-0.005179
-0.00518811
-0.00519795
-0.00520857
-0.00522004
-0.00523242
-0.00524581
-0.00526028
-0.00527591
-0.00529282
-0.00531109
-0.00533085
-0.00535222
-0.00537531
-0.00540028
-0.00542728
-0.00545645
-0.00548798
-0.00552204
-0.00555883
-0.00559857
-0.00564148
-0.00568781
-0.00573782
-0.00579179
-0.00585003
-0.00591288
-0.00598068
-0.00605384
-0.00613277
-0.00621794
-0.00630985
-0.00640905
-0.00651615
-0.0066318
-0.00675676
-0.00689181
-0.00703787
-0.00719593
-0.00736711
-0.00755268
-0.00775403
-0.00797279
-0.00821077
-0.00847007
-0.00875309
-0.00906262
-0.00940193
-0.00977492
-0.0101842
-0.010638
-0.0111406
-0.0116991
-0.0123218
-0.0130183
-0.0137994
-0.0146778
-0.0156675
-0.0167841
-0.0180443
-0.0194659
-0.0210665
-0.0228633
-0.0248714
-0.0271026
-0.0295642
-0.0322571
-0.0351749
-0.0383034
-0.0416199
-0.0450939
-0.0486883
-0.0523613
-0.056068
-0.00526682
-0.00526709
-0.00526753
-0.00526816
-0.00526899
-0.00527002
-0.00527126
-0.00527271
-0.00527437
-0.00527626
-0.00527838
-0.00528073
-0.00528332
-0.00528616
-0.00528926
-0.00529263
-0.00529629
-0.00530024
-0.00530451
-0.00530911
-0.00531406
-0.00531939
-0.00532512
-0.00533129
-0.00533793
-0.00534508
-0.00535279
-0.00536109
-0.00537004
-0.00537971
-0.00539014
-0.00540143
-0.00541363
-0.00542684
-0.00544113
-0.00545662
-0.0054734
-0.00549158
-0.00551129
-0.00553267
-0.00555583
-0.00558095
-0.00560818
-0.00563769
-0.00566968
-0.00570433
-0.00574186
-0.0057825
-0.00582651
-0.00587414
-0.00592568
-0.00598144
-0.00604175
-0.00610698
-0.00617751
-0.00625378
-0.00633623
-0.00642538
-0.00652177
-0.00662601
-0.00673876
-0.00686074
-0.00699275
-0.0071357
-0.00729056
-0.00745843
-0.00764056
-0.00783833
-0.00805332
-0.00828732
-0.00854236
-0.00882077
-0.00912525
-0.00945893
-0.00982542
-0.0102287
-0.0106742
-0.0111674
-0.0117152
-0.0123254
-0.013007
-0.0137706
-0.0146282
-0.0155933
-0.0166807
-0.0179068
-0.0192885
-0.0208433
-0.0225878
-0.0245372
-0.0267038
-0.0290954
-0.0317142
-0.0345555
-0.0376069
-0.0408478
-0.0442499
-0.047778
-0.0513916
-0.055047
-0.00544094
-0.00544131
-0.00544184
-0.00544255
-0.00544344
-0.00544453
-0.00544581
-0.00544729
-0.00544897
-0.00545086
-0.00545295
-0.00545525
-0.00545777
-0.00546051
-0.00546348
-0.00546668
-0.00547012
-0.00547382
-0.00547778
-0.00548202
-0.00548657
-0.00549143
-0.00549663
-0.00550221
-0.00550819
-0.0055146
-0.00552149
-0.00552891
-0.00553689
-0.00554551
-0.00555482
-0.00556488
-0.00557578
-0.0055876
-0.00560042
-0.00561434
-0.00562946
-0.00564591
-0.0056638
-0.00568326
-0.00570444
-0.00572748
-0.00575256
-0.00577984
-0.00580952
-0.0058418
-0.00587688
-0.00591502
-0.00595644
-0.00600143
-0.00605027
-0.00610328
-0.00616078
-0.00622314
-0.00629075
-0.00636404
-0.00644347
-0.00652953
-0.00662279
-0.00672383
-0.00683331
-0.00695196
-0.00708057
-0.00722002
-0.00737128
-0.00753544
-0.00771371
-0.00790746
-0.00811823
-0.00834776
-0.00859803
-0.00887132
-0.00917024
-0.00949779
-0.00985746
-0.0102533
-0.0106902
-0.0111735
-0.0117099
-0.0123068
-0.0129728
-0.0137181
-0.0145541
-0.0154937
-0.0165512
-0.0177421
-0.019083
-0.0205907
-0.0222816
-0.0241708
-0.0262707
-0.02859
-0.0311319
-0.0338933
-0.0368635
-0.0400242
-0.043349
-0.0468048
-0.0503529
-0.0539504
-0.00561022
-0.00561073
-0.0056114
-0.00561222
-0.00561321
-0.00561439
-0.00561575
-0.00561729
-0.00561901
-0.00562092
-0.00562301
-0.00562529
-0.00562775
-0.0056304
-0.00563323
-0.00563626
-0.00563949
-0.00564292
-0.00564657
-0.00565043
-0.00565454
-0.0056589
-0.00566354
-0.00566847
-0.00567373
-0.00567934
-0.00568535
-0.0056918
-0.00569874
-0.00570621
-0.00571428
-0.00572302
-0.00573249
-0.00574279
-0.00575399
-0.0057662
-0.00577952
-0.00579406
-0.00580995
-0.00582732
-0.00584632
-0.0058671
-0.00588982
-0.00591466
-0.00594181
-0.00597149
-0.00600389
-0.00603927
-0.00607787
-0.00611997
-0.00616585
-0.00621583
-0.00627025
-0.00632946
-0.00639387
-0.00646389
-0.00653999
-0.00662268
-0.00671248
-0.00681001
-0.00691591
-0.0070309
-0.00715576
-0.00729136
-0.00743867
-0.00759874
-0.00777278
-0.00796212
-0.00816826
-0.0083929
-0.00863799
-0.00890571
-0.00919859
-0.00951956