/*--------------------------------*- C++ -*----------------------------------*\
| =========                 |                                                 |
| \\      /  F ield         | OpenFOAM: The Open Source CFD Toolbox           |
|  \\    /   O peration     | Version:  2406                                  |
|   \\  /    A nd           | Website:  www.openfoam.com                      |
|    \\/     M anipulation  |                                                 |
\*---------------------------------------------------------------------------*/
FoamFile
{
    version     2.0;
    format      ascii;
    arch        "LSB;label=32;scalar=64";
    class       surfaceScalarField;
    location    "6.975";
    object      phi;
}
// * * * * * * * * * * * * * * * * * * * * * * * * * * * * * * * * * * * * * //

dimensions      [0 3 -1 0 0 0 0];

oriented        oriented;

internalField   nonuniform List<scalar> 
79600
(
-2.92637e-09
1.82362e-07
-1.79465e-07
-1.17041e-08
5.47064e-07
-5.38286e-07
-2.65412e-08
9.17358e-07
-9.02521e-07
-4.76171e-08
1.29301e-06
-1.27193e-06
-7.51122e-08
1.67377e-06
-1.64628e-06
-1.09207e-07
2.05938e-06
-2.02529e-06
-1.50082e-07
2.44957e-06
-2.4087e-06
-1.97916e-07
2.84406e-06
-2.79623e-06
-2.52886e-07
3.24257e-06
-3.18759e-06
-3.15168e-07
3.64479e-06
-3.5825e-06
-3.84934e-07
4.05042e-06
-3.98066e-06
-4.62354e-07
4.45917e-06
-4.38175e-06
-5.47593e-07
4.87072e-06
-4.78548e-06
-6.40813e-07
5.28476e-06
-5.19154e-06
-7.42171e-07
5.70098e-06
-5.59963e-06
-8.51819e-07
6.11908e-06
-6.00943e-06
-9.69904e-07
6.53875e-06
-6.42066e-06
-1.09657e-06
6.95968e-06
-6.83302e-06
-1.23194e-06
7.3816e-06
-7.24623e-06
-1.37615e-06
7.80423e-06
-7.66001e-06
-1.52933e-06
8.22729e-06
-8.07411e-06
-1.69159e-06
8.65054e-06
-8.48828e-06
-1.86304e-06
9.07374e-06
-8.9023e-06
-2.04378e-06
9.49669e-06
-9.31595e-06
-2.23391e-06
9.91918e-06
-9.72905e-06
-2.43353e-06
1.03411e-05
-1.01414e-05
-2.64273e-06
1.07622e-05
-1.0553e-05
-2.86158e-06
1.11824e-05
-1.09636e-05
-3.09018e-06
1.16017e-05
-1.13731e-05
-3.3286e-06
1.202e-05
-1.17816e-05
-3.57691e-06
1.24373e-05
-1.21889e-05
-3.8352e-06
1.28535e-05
-1.25953e-05
-4.10354e-06
1.32689e-05
-1.30006e-05
-4.38202e-06
1.36834e-05
-1.3405e-05
-4.67071e-06
1.40973e-05
-1.38086e-05
-4.96972e-06
1.45106e-05
-1.42116e-05
-5.27913e-06
1.49237e-05
-1.46143e-05
-5.59905e-06
1.53368e-05
-1.50168e-05
-5.92962e-06
1.57501e-05
-1.54196e-05
-6.27095e-06
1.61642e-05
-1.58229e-05
-6.62321e-06
1.65793e-05
-1.62271e-05
-6.98655e-06
1.6996e-05
-1.66326e-05
-7.36118e-06
1.74146e-05
-1.704e-05
-7.74732e-06
1.78358e-05
-1.74497e-05
-8.1452e-06
1.82602e-05
-1.78623e-05
-8.55512e-06
1.86883e-05
-1.82784e-05
-8.97737e-06
1.91208e-05
-1.86986e-05
-9.41233e-06
1.95585e-05
-1.91235e-05
-9.86039e-06
2.00021e-05
-1.9554e-05
-1.0322e-05
2.04524e-05
-1.99908e-05
-1.07977e-05
2.09102e-05
-2.04346e-05
-1.1288e-05
2.13766e-05
-2.08863e-05
-1.17935e-05
2.18523e-05
-2.13467e-05
-1.2315e-05
2.23384e-05
-2.18169e-05
-1.28533e-05
2.28361e-05
-2.22978e-05
-1.34093e-05
2.33465e-05
-2.27905e-05
-1.39839e-05
2.38707e-05
-2.32961e-05
-1.45783e-05
2.44102e-05
-2.38158e-05
-1.51938e-05
2.49665e-05
-2.43511e-05
-1.58317e-05
2.55412e-05
-2.49033e-05
-1.64937e-05
2.61362e-05
-2.54742e-05
-1.71816e-05
2.67535e-05
-2.60657e-05
-1.78974e-05
2.73957e-05
-2.66799e-05
-1.86434e-05
2.80656e-05
-2.73196e-05
-1.94223e-05
2.87666e-05
-2.79876e-05
-2.02372e-05
2.95027e-05
-2.86878e-05
-2.10915e-05
3.02788e-05
-2.94245e-05
-2.19892e-05
3.11008e-05
-3.02031e-05
-2.2935e-05
3.19759e-05
-3.10301e-05
-2.3934e-05
3.29127e-05
-3.19137e-05
-2.49923e-05
3.39218e-05
-3.28635e-05
-2.61168e-05
3.50157e-05
-3.38912e-05
-2.73155e-05
3.62096e-05
-3.50109e-05
-2.8597e-05
3.75211e-05
-3.62395e-05
-2.99715e-05
3.89709e-05
-3.75964e-05
-3.14497e-05
4.05823e-05
-3.91041e-05
-3.30434e-05
4.23816e-05
-4.07878e-05
-3.47652e-05
4.43968e-05
-4.2675e-05
-3.66279e-05
4.66574e-05
-4.47947e-05
-3.86442e-05
4.91922e-05
-4.71759e-05
-4.08259e-05
5.20277e-05
-4.9846e-05
-4.31831e-05
5.51851e-05
-5.28279e-05
-4.57231e-05
5.86771e-05
-5.61371e-05
-4.84494e-05
6.25043e-05
-5.9778e-05
-5.13601e-05
6.66511e-05
-6.37404e-05
-5.44472e-05
7.10824e-05
-6.79953e-05
-5.76952e-05
7.57402e-05
-7.24923e-05
-6.10803e-05
8.05419e-05
-7.71568e-05
-6.45705e-05
8.53801e-05
-8.18899e-05
-6.81256e-05
9.0124e-05
-8.65689e-05
-7.16984e-05
9.46235e-05
-9.10507e-05
-7.52364e-05
9.87153e-05
-9.51774e-05
-7.8684e-05
0.000102231
-9.87831e-05
-8.19863e-05
0.000105006
-0.000101703
-8.50922e-05
0.000106891
-0.000103785
-8.79587e-05
0.000107762
-0.000104895
-9.0554e-05
0.000107529
-0.000104933
-9.28608e-05
0.000106141
-0.000103834
-9.48779e-05
0.000103593
-0.000101576
9.99189e-05
-9.66205e-05
-9.81764e-05
-2.64458e-09
1.85006e-07
-1.06705e-08
5.5509e-07
-2.42585e-08
9.30946e-07
-4.35905e-08
1.31234e-06
-6.885e-08
1.69903e-06
-1.00221e-07
2.09075e-06
-1.37886e-07
2.48724e-06
-1.8203e-07
2.88821e-06
-2.32835e-07
3.29337e-06
-2.90482e-07
3.70243e-06
-3.55148e-07
4.11509e-06
-4.2701e-07
4.53103e-06
-5.06239e-07
4.94995e-06
-5.93004e-07
5.37153e-06
-6.8747e-07
5.79545e-06
-7.89794e-07
6.2214e-06
-9.0013e-07
6.64908e-06
-1.01863e-06
7.07818e-06
-1.14543e-06
7.5084e-06
-1.28067e-06
7.93947e-06
-1.42447e-06
8.3711e-06
-1.57697e-06
8.80304e-06
-1.73827e-06
9.23505e-06
-1.9085e-06
9.66691e-06
-2.08774e-06
1.00984e-05
-2.2761e-06
1.05294e-05
-2.47368e-06
1.09597e-05
-2.68056e-06
1.13893e-05
-2.89682e-06
1.1818e-05
-3.12254e-06
1.22457e-05
-3.35781e-06
1.26725e-05
-3.60269e-06
1.30984e-05
-3.85727e-06
1.35235e-05
-4.12163e-06
1.39478e-05
-4.39583e-06
1.43715e-05
-4.67998e-06
1.47948e-05
-4.97415e-06
1.52179e-05
-5.27845e-06
1.56411e-05
-5.59299e-06
1.60647e-05
-5.91789e-06
1.64891e-05
-6.25329e-06
1.69147e-05
-6.59935e-06
1.7342e-05
-6.95622e-06
1.77715e-05
-7.32413e-06
1.82037e-05
-7.70329e-06
1.86393e-05
-8.09396e-06
1.9079e-05
-8.49643e-06
1.95233e-05
-8.91102e-06
1.99731e-05
-9.33812e-06
2.04292e-05
-9.77813e-06
2.08924e-05
-1.02315e-05
2.13636e-05
-1.06988e-05
2.18439e-05
-1.11807e-05
2.23341e-05
-1.16777e-05
2.28355e-05
-1.21907e-05
2.33491e-05
-1.27204e-05
2.38762e-05
-1.32679e-05
2.44182e-05
-1.38342e-05
2.49765e-05
-1.44204e-05
2.55528e-05
-1.50281e-05
2.61488e-05
-1.56586e-05
2.67667e-05
-1.63136e-05
2.74086e-05
-1.69953e-05
2.80773e-05
-1.77057e-05
2.8776e-05
-1.84473e-05
2.95082e-05
-1.92232e-05
3.02785e-05
-2.00365e-05
3.10921e-05
-2.08911e-05
3.19554e-05
-2.17912e-05
3.2876e-05
-2.27419e-05
3.38633e-05
-2.37486e-05
3.49285e-05
-2.48179e-05
3.6085e-05
-2.59568e-05
3.73486e-05
-2.71736e-05
3.87379e-05
-2.84771e-05
4.02743e-05
-2.9877e-05
4.19822e-05
-3.13838e-05
4.38884e-05
-3.30084e-05
4.60214e-05
-3.47616e-05
4.84106e-05
-3.6654e-05
5.10846e-05
-3.86951e-05
5.40688e-05
-4.08926e-05
5.73826e-05
-4.32514e-05
6.10358e-05
-4.57723e-05
6.50252e-05
-4.84517e-05
6.93305e-05
-5.12797e-05
7.39104e-05
-5.42399e-05
7.87005e-05
-5.73088e-05
8.36108e-05
-6.04554e-05
8.85267e-05
-6.36422e-05
9.33108e-05
-6.68259e-05
9.78072e-05
-6.99594e-05
0.000101849
-7.29943e-05
0.000105266
-7.58839e-05
0.000107895
-7.85865e-05
0.000109593
-8.10689e-05
0.000110244
-8.33095e-05
0.000109769
-8.53002e-05
0.000108132
-8.70481e-05
0.000105341
0.000101445
-8.85743e-05
-2.39558e-09
1.87402e-07
-9.68522e-09
5.6238e-07
-2.20503e-08
9.43312e-07
-3.96749e-08
1.32997e-06
-6.27446e-08
1.7221e-06
-9.1446e-08
2.11945e-06
-1.25966e-07
2.52176e-06
-1.66493e-07
2.92873e-06
-2.13212e-07
3.34009e-06
-2.66309e-07
3.75553e-06
-3.25967e-07
4.17475e-06
-3.92368e-07
4.59743e-06
-4.65689e-07
5.02327e-06
-5.46104e-07
5.45194e-06
-6.33784e-07
5.88313e-06
-7.28893e-07
6.31651e-06
-8.31592e-07
6.75178e-06
-9.42036e-07
7.18862e-06
-1.06037e-06
7.62674e-06
-1.18674e-06
8.06584e-06
-1.32128e-06
8.50564e-06
-1.46412e-06
8.94588e-06
-1.61538e-06
9.38631e-06
-1.77517e-06
9.82671e-06
-1.94361e-06
1.02669e-05
-2.1208e-06
1.07066e-05
-2.30682e-06
1.11458e-05
-2.50178e-06
1.15842e-05
-2.70576e-06
1.20219e-05
-2.91883e-06
1.24588e-05
-3.14108e-06
1.28948e-05
-3.37258e-06
1.33299e-05
-3.6134e-06
1.37643e-05
-3.86362e-06
1.4198e-05
-4.12331e-06
1.46312e-05
-4.39255e-06
1.5064e-05
-4.67142e-06
1.54967e-05
-4.96002e-06
1.59297e-05
-5.25843e-06
1.63631e-05
-5.56677e-06
1.67974e-05
-5.88516e-06
1.72331e-05
-6.21374e-06
1.76706e-05
-6.55266e-06
1.81104e-05
-6.9021e-06
1.85532e-05
-7.26226e-06
1.89995e-05
-7.63338e-06
1.94501e-05
-8.01571e-06
1.99056e-05
-8.40955e-06
2.03669e-05
-8.81524e-06
2.08349e-05
-9.23316e-06
2.13103e-05
-9.66375e-06
2.17942e-05
-1.01075e-05
2.22876e-05
-1.05649e-05
2.27916e-05
-1.10367e-05
2.33072e-05
-1.15235e-05
2.38359e-05
-1.20261e-05
2.43788e-05
-1.25454e-05
2.49375e-05
-1.30824e-05
2.55135e-05
-1.36383e-05
2.61086e-05
-1.42142e-05
2.67248e-05
-1.48116e-05
2.73641e-05
-1.54322e-05
2.80292e-05
-1.60778e-05
2.87229e-05
-1.67504e-05
2.94486e-05
-1.74525e-05
3.02103e-05
-1.81866e-05
3.10127e-05
-1.8956e-05
3.18615e-05
-1.9764e-05
3.27634e-05
-2.06148e-05
3.37267e-05
-2.15127e-05
3.47613e-05
-2.2463e-05
3.58788e-05
-2.34715e-05
3.70934e-05
-2.45446e-05
3.84216e-05
-2.56895e-05
3.98828e-05
-2.69141e-05
4.1499e-05
-2.82269e-05
4.32951e-05
-2.96368e-05
4.52983e-05
-3.11531e-05
4.75376e-05
-3.27847e-05
5.00422e-05
-3.45402e-05
5.28401e-05
-3.64268e-05
5.59555e-05
-3.845e-05
5.94058e-05
-4.06125e-05
6.31983e-05
-4.29134e-05
6.73261e-05
-4.53473e-05
7.17644e-05
-4.79037e-05
7.64668e-05
-5.05661e-05
8.13628e-05
-5.33119e-05
8.63566e-05
-5.61123e-05
9.13272e-05
-5.89333e-05
9.61318e-05
-6.17365e-05
0.00010061
-6.44811e-05
0.000104593
-6.7126e-05
0.000107911
-6.96329e-05
0.000110402
-7.19691e-05
0.00011193
-7.41105e-05
0.000112386
-7.60439e-05
0.000111703
-7.7769e-05
0.000109857
-7.92986e-05
0.000106871
0.000102804
-8.06575e-05
-2.15474e-09
1.89557e-07
-8.72956e-09
5.68955e-07
-1.99071e-08
9.54489e-07
-3.58725e-08
1.34593e-06
-5.68133e-08
1.74304e-06
-8.29182e-08
2.14556e-06
-1.14377e-07
2.55322e-06
-1.51381e-07
2.96574e-06
-1.94119e-07
3.38283e-06
-2.4278e-07
3.80419e-06
-2.97553e-07
4.22952e-06
-3.58623e-07
4.6585e-06
-4.26171e-07
5.09082e-06
-5.00378e-07
5.52615e-06
-5.81419e-07
5.96417e-06
-6.69465e-07
6.40456e-06
-7.64679e-07
6.847e-06
-8.67224e-07
7.29117e-06
-9.77252e-07
7.73677e-06
-1.09491e-06
8.1835e-06
-1.22034e-06
8.63107e-06
-1.35367e-06
9.07921e-06
-1.49504e-06
9.52767e-06
-1.64455e-06
9.97622e-06
-1.80233e-06
1.04246e-05
-1.96847e-06
1.08727e-05
-2.14308e-06
1.13204e-05
-2.32625e-06
1.17674e-05
-2.51805e-06
1.22137e-05
-2.71858e-06
1.26593e-05
-2.92791e-06
1.31041e-05
-3.14611e-06
1.35481e-05
-3.37325e-06
1.39914e-05
-3.6094e-06
1.44342e-05
-3.85462e-06
1.48764e-05
-4.10899e-06
1.53184e-05
-4.37258e-06
1.57603e-05
-4.64547e-06
1.62025e-05
-4.92774e-06
1.66454e-05
-5.21948e-06
1.70892e-05
-5.52081e-06
1.75344e-05
-5.83183e-06
1.79816e-05
-6.15268e-06
1.84313e-05
-6.48351e-06
1.8884e-05
-6.82451e-06
1.93405e-05
-7.17588e-06
1.98014e-05
-7.53784e-06
2.02676e-05
-7.91065e-06
2.07398e-05
-8.29463e-06
2.12189e-05
-8.69011e-06
2.17058e-05
-9.09748e-06
2.22016e-05
-9.51719e-06
2.27073e-05
-9.94973e-06
2.32241e-05
-1.03957e-05
2.37532e-05
-1.08557e-05
2.42959e-05
-1.13304e-05
2.48536e-05
-1.18208e-05
2.54278e-05
-1.23276e-05
2.60204e-05
-1.2852e-05
2.6633e-05
-1.33951e-05
2.72678e-05
-1.39582e-05
2.79272e-05
-1.45429e-05
2.86139e-05
-1.51508e-05
2.93308e-05
-1.57839e-05
3.00817e-05
-1.64443e-05
3.08707e-05
-1.71345e-05
3.17029e-05
-1.78574e-05
3.25843e-05
-1.8616e-05
3.35221e-05
-1.94142e-05
3.45249e-05
-2.02558e-05
3.56029e-05
-2.11456e-05
3.67686e-05
-2.20886e-05
3.80364e-05
-2.30906e-05
3.94236e-05
-2.41578e-05
4.095e-05
-2.5297e-05
4.26382e-05
-2.65154e-05
4.45134e-05
-2.78204e-05
4.66033e-05
-2.92196e-05
4.89368e-05
-3.07201e-05
5.15428e-05
-3.23285e-05
5.44485e-05
-3.40501e-05
5.7677e-05
-3.58883e-05
6.1244e-05
-3.78439e-05
6.5154e-05
-3.99148e-05
6.9397e-05
-4.20945e-05
7.39442e-05
-4.43724e-05
7.87446e-05
-4.67325e-05
8.37229e-05
-4.91539e-05
8.87781e-05
-5.16111e-05
9.37843e-05
-5.4074e-05
9.85947e-05
-5.65097e-05
0.000103046
-5.88839e-05
0.000106968
-6.11633e-05
0.00011019
-6.33176e-05
0.000112556
-6.53223e-05
0.000113934
-6.71613e-05
0.000114225
-6.88287e-05
0.00011337
-7.03298e-05
0.000111358
-7.16809e-05
0.000108222
0.000104032
-7.29085e-05
-1.92254e-09
1.91479e-07
-7.80853e-09
5.74841e-07
-1.78407e-08
9.64521e-07
-3.22051e-08
1.3603e-06
-5.10902e-08
1.76193e-06
-7.46867e-08
2.16915e-06
-1.03186e-07
2.58172e-06
-1.36782e-07
2.99933e-06
-1.75666e-07
3.42171e-06
-2.2003e-07
3.84856e-06
-2.70066e-07
4.27956e-06
-3.25963e-07
4.7144e-06
-3.87907e-07
5.15276e-06
-4.56081e-07
5.59432e-06
-5.30666e-07
6.03875e-06
-6.11835e-07
6.48573e-06
-6.99759e-07
6.93492e-06
-7.94602e-07
7.38601e-06
-8.96523e-07
7.83869e-06
-1.00567e-06
8.29264e-06
-1.12219e-06
8.74759e-06
-1.24623e-06
9.20324e-06
-1.3779e-06
9.65935e-06
-1.51734e-06
1.01157e-05
-1.66465e-06
1.0572e-05
-1.81995e-06
1.1028e-05
-1.98333e-06
1.14838e-05
-2.15489e-06
1.1939e-05
-2.33471e-06
1.23936e-05
-2.52286e-06
1.28475e-05
-2.71944e-06
1.33007e-05
-2.92449e-06
1.37532e-05
-3.13809e-06
1.4205e-05
-3.3603e-06
1.46564e-05
-3.59118e-06
1.51073e-05
-3.83079e-06
1.5558e-05
-4.0792e-06
1.60087e-05
-4.33646e-06
1.64598e-05
-4.60264e-06
1.69115e-05
-4.87784e-06
1.73644e-05
-5.16212e-06
1.78187e-05
-5.45559e-06
1.82751e-05
-5.75836e-06
1.8734e-05
-6.07056e-06
1.91962e-05
-6.39234e-06
1.96623e-05
-6.72387e-06
2.0133e-05
-7.06534e-06
2.0609e-05
-7.41699e-06
2.10914e-05
-7.77907e-06
2.15809e-05
-8.15189e-06
2.20786e-05
-8.53579e-06
2.25855e-05
-8.93115e-06
2.31027e-05
-9.33844e-06
2.36314e-05
-9.75816e-06
2.41729e-05
-1.01909e-05
2.47286e-05
-1.06372e-05
2.52999e-05
-1.1098e-05
2.58886e-05
-1.1574e-05
2.64964e-05
-1.20661e-05
2.71252e-05
-1.25755e-05
2.77772e-05
-1.31034e-05
2.84551e-05
-1.3651e-05
2.91615e-05
-1.422e-05
2.98998e-05
-1.48121e-05
3.06738e-05
-1.54293e-05
3.14879e-05
-1.60738e-05
3.23474e-05
-1.67481e-05
3.32586e-05
-1.74551e-05
3.42291e-05
-1.81981e-05
3.52678e-05
-1.89805e-05
3.63854e-05
-1.98064e-05
3.75945e-05
-2.06804e-05
3.89104e-05
-2.16071e-05
4.03504e-05
-2.2592e-05
4.19349e-05
-2.36407e-05
4.36868e-05
-2.4759e-05
4.56318e-05
-2.5953e-05
4.77973e-05
-2.72285e-05
5.02123e-05
-2.8591e-05
5.29052e-05
-3.00451e-05
5.59026e-05
-3.15943e-05
5.92262e-05
-3.32403e-05
6.289e-05
-3.49826e-05
6.68963e-05
-3.68178e-05
7.12322e-05
-3.87391e-05
7.58655e-05
-4.07361e-05
8.07416e-05
-4.27941e-05
8.5781e-05
-4.48946e-05
9.08786e-05
-4.70155e-05
9.59052e-05
-4.91313e-05
0.000100711
-5.1215e-05
0.00010513
-5.32391e-05
0.000108992
-5.51773e-05
0.000112128
-5.70073e-05
0.000114386
-5.8712e-05
0.000115639
-6.02821e-05
0.000115795
-6.17173e-05
0.000114805
-6.30268e-05
0.000112668
-6.4229e-05
0.000109424
0.000105152
-6.53496e-05
-1.70054e-09
1.9318e-07
-6.9268e-09
5.80067e-07
-1.58616e-08
9.73456e-07
-2.86912e-08
1.37313e-06
-4.56047e-08
1.77884e-06
-6.67934e-08
2.19034e-06
-9.24505e-08
2.60737e-06
-1.2277e-07
3.02965e-06
-1.57947e-07
3.45689e-06
-1.98175e-07
3.88878e-06
-2.43648e-07
4.32503e-06
-2.94558e-07
4.76531e-06
-3.51093e-07
5.2093e-06
-4.13442e-07
5.65667e-06
-4.81785e-07
6.1071e-06
-5.56302e-07
6.56024e-06
-6.37166e-07
7.01578e-06
-7.24545e-07
7.47339e-06
-8.18599e-07
7.93274e-06
-9.19485e-07
8.39353e-06
-1.02735e-06
8.85545e-06
-1.14233e-06
9.31823e-06
-1.26457e-06
9.78158e-06
-1.39418e-06
1.02453e-05
-1.53128e-06
1.07091e-05
-1.67598e-06
1.11727e-05
-1.82838e-06
1.16362e-05
-1.98857e-06
1.20992e-05
-2.15664e-06
1.25616e-05
-2.33266e-06
1.30235e-05
-2.5167e-06
1.34847e-05
-2.70883e-06
1.39453e-05
-2.9091e-06
1.44053e-05
-3.11757e-06
1.48648e-05
-3.3343e-06
1.5324e-05
-3.55934e-06
1.5783e-05
-3.79272e-06
1.62421e-05
-4.03451e-06
1.67016e-05
-4.28477e-06
1.71618e-05
-4.54354e-06
1.76231e-05
-4.8109e-06
1.80861e-05
-5.08692e-06
1.85511e-05
-5.37169e-06
1.90188e-05
-5.66532e-06
1.94898e-05
-5.96791e-06
1.99649e-05
-6.27962e-06
2.04447e-05
-6.6006e-06
2.093e-05
-6.93105e-06
2.14218e-05
-7.27118e-06
2.19211e-05
-7.62124e-06
2.24287e-05
-7.98155e-06
2.29458e-05
-8.35242e-06
2.34736e-05
-8.73425e-06
2.40132e-05
-9.12749e-06
2.45661e-05
-9.53264e-06
2.51337e-05
-9.95028e-06
2.57176e-05
-1.03811e-05
2.63194e-05
-1.08257e-05
2.6941e-05
-1.12851e-05
2.75846e-05
-1.17602e-05
2.82523e-05
-1.2252e-05
2.89469e-05
-1.27618e-05
2.96713e-05
-1.3291e-05
3.0429e-05
-1.38411e-05
3.12238e-05
-1.44139e-05
3.20606e-05
-1.50113e-05
3.29448e-05
-1.56355e-05
3.38829e-05
-1.62891e-05
3.48827e-05
-1.69749e-05
3.59536e-05
-1.76959e-05
3.71064e-05
-1.84556e-05
3.83542e-05
-1.92576e-05
3.97124e-05
-2.01061e-05
4.11989e-05
-2.10053e-05
4.28341e-05
-2.19597e-05
4.46413e-05
-2.2974e-05
4.6646e-05
-2.40527e-05
4.8876e-05
-2.52e-05
5.13596e-05
-2.64199e-05
5.4125e-05
-2.77152e-05
5.71979e-05
-2.90877e-05
6.05988e-05
-3.05378e-05
6.43401e-05
-3.20638e-05
6.84222e-05
-3.36614e-05
7.28298e-05
-3.5324e-05
7.75281e-05
-3.70417e-05
8.24593e-05
-3.88016e-05
8.75409e-05
-4.0588e-05
9.2665e-05
-4.23824e-05
9.76996e-05
-4.41645e-05
0.000102493
-4.59129e-05
0.000106878
-4.76068e-05
0.000110686
-4.92271e-05
0.000113748
-5.07583e-05
0.000115918
-5.21901e-05
0.000117071
-5.3519e-05
0.000117124
-5.47487e-05
0.000116035
-5.58909e-05
0.00011381
-5.69643e-05
0.000110497
0.000106181
-5.79929e-05
-1.48953e-09
1.94669e-07
-6.08863e-09
5.84666e-07
-1.39796e-08
9.81347e-07
-2.53482e-08
1.38449e-06
-4.03835e-08
1.79387e-06
-5.9277e-08
2.20924e-06
-8.22224e-08
2.63032e-06
-1.09415e-07
3.05684e-06
-1.41049e-07
3.48852e-06
-1.77322e-07
3.92506e-06
-2.18428e-07
4.36614e-06
-2.64561e-07
4.81144e-06
-3.15911e-07
5.26065e-06
-3.72668e-07
5.71343e-06
-4.35017e-07
6.16945e-06
-5.03137e-07
6.62836e-06
-5.77206e-07
7.08985e-06
-6.57392e-07
7.55358e-06
-7.43861e-07
8.01921e-06
-8.36768e-07
8.48644e-06
-9.36264e-07
8.95495e-06
-1.04249e-06
9.42445e-06
-1.15558e-06
9.89467e-06
-1.27566e-06
1.03653e-05
-1.40285e-06
1.08362e-05
-1.53726e-06
1.13071e-05
-1.67897e-06
1.17779e-05
-1.82809e-06
1.22483e-05
-1.9847e-06
1.27182e-05
-2.14887e-06
1.31877e-05
-2.32066e-06
1.36565e-05
-2.50015e-06
1.41248e-05
-2.68736e-06
1.45925e-05
-2.88237e-06
1.50598e-05
-3.0852e-06
1.55268e-05
-3.29591e-06
1.59937e-05
-3.51452e-06
1.64607e-05
-3.74107e-06
1.69282e-05
-3.97561e-06
1.73963e-05
-4.21817e-06
1.78657e-05
-4.4688e-06
1.83367e-05
-4.72755e-06
1.88098e-05
-4.99449e-06
1.92858e-05
-5.2697e-06
1.9765e-05
-5.55325e-06
2.02484e-05
-5.84526e-06
2.07367e-05
-6.14585e-06
2.12306e-05
-6.45517e-06
2.17312e-05
-6.77341e-06
2.22393e-05
-7.10076e-06
2.2756e-05
-7.43748e-06
2.32825e-05
-7.78384e-06
2.38199e-05
-8.14017e-06
2.43696e-05
-8.50685e-06
2.49328e-05
-8.88432e-06
2.55112e-05
-9.27307e-06
2.61063e-05
-9.67366e-06
2.672e-05
-1.00868e-05
2.73541e-05
-1.05131e-05
2.80109e-05
-1.09535e-05
2.86927e-05
-1.14089e-05
2.94023e-05
-1.18803e-05
3.01428e-05
-1.23691e-05
3.09177e-05
-1.28765e-05
3.17312e-05
-1.3404e-05
3.25882e-05
-1.39534e-05
3.34942e-05
-1.45266e-05
3.44561e-05
-1.51256e-05
3.54818e-05
-1.57529e-05
3.65808e-05
-1.6411e-05
3.77644e-05
-1.71027e-05
3.90459e-05
-1.7831e-05
4.04407e-05
-1.85992e-05
4.1967e-05
-1.94105e-05
4.36454e-05
-2.02683e-05
4.54991e-05
-2.11761e-05
4.75538e-05
-2.21369e-05
4.98368e-05
-2.31536e-05
5.23764e-05
-2.42285e-05
5.51999e-05
-2.5363e-05
5.83324e-05
-2.65574e-05
6.17932e-05
-2.78107e-05
6.55935e-05
-2.91204e-05
6.97319e-05
-3.04819e-05
7.41913e-05
-3.18886e-05
7.89348e-05
-3.33318e-05
8.39024e-05
-3.48005e-05
8.90097e-05
-3.6282e-05
9.41465e-05
-3.77618e-05
9.91793e-05
-3.92245e-05
0.000103955
-4.06547e-05
0.000108308
-4.20377e-05
0.000112069
-4.33612e-05
0.000115072
-4.4616e-05
0.000117172
-4.57976e-05
0.000118253
-4.69071e-05
0.000118233
-4.79515e-05
0.000117079
-4.89435e-05
0.000114802
-4.99009e-05
0.000111455
0.000107125
-5.08451e-05
-1.29059e-09
1.9596e-07
-5.29794e-09
5.88673e-07
-1.22031e-08
9.88252e-07
-2.2191e-08
1.39448e-06
-3.545e-08
1.80713e-06
-5.21713e-08
2.22596e-06
-7.25482e-08
2.6507e-06
-9.67756e-08
3.08107e-06
-1.2505e-07
3.5168e-06
-1.57566e-07
3.95757e-06
-1.9452e-07
4.40309e-06
-2.36107e-07
4.85303e-06
-2.82519e-07
5.30706e-06
-3.33945e-07
5.76485e-06
-3.90572e-07
6.22607e-06
-4.52581e-07
6.69037e-06
-5.20149e-07
7.15742e-06
-5.93449e-07
7.62688e-06
-6.72645e-07
8.09841e-06
-7.57896e-07
8.57169e-06
-8.49351e-07
9.04641e-06
-9.47155e-07
9.52226e-06
-1.05144e-06
9.99896e-06
-1.16233e-06
1.04762e-05
-1.27995e-06
1.09539e-05
-1.4044e-06
1.14316e-05
-1.53578e-06
1.19093e-05
-1.67418e-06
1.23867e-05
-1.81967e-06
1.28637e-05
-1.97233e-06
1.33403e-05
-2.13222e-06
1.38164e-05
-2.29938e-06
1.4292e-05
-2.47388e-06
1.4767e-05
-2.65574e-06
1.52417e-05
-2.845e-06
1.57161e-05
-3.04169e-06
1.61904e-05
-3.24583e-06
1.66649e-05
-3.45744e-06
1.71398e-05
-3.67655e-06
1.76154e-05
-3.90318e-06
1.80923e-05
-4.13735e-06
1.85709e-05
-4.3791e-06
1.90516e-05
-4.62846e-06
1.95351e-05
-4.88548e-06
2.00221e-05
-5.15022e-06
2.05132e-05
-5.42274e-06
2.10092e-05
-5.70314e-06
2.1511e-05
-5.99153e-06
2.20196e-05
-6.28804e-06
2.25358e-05
-6.59283e-06
2.30608e-05
-6.90609e-06
2.35958e-05
-7.22805e-06
2.41419e-05
-7.55898e-06
2.47005e-05
-7.89917e-06
2.5273e-05
-8.249e-06
2.5861e-05
-8.60888e-06
2.64662e-05
-8.97928e-06
2.70904e-05
-9.36075e-06
2.77356e-05
-9.75392e-06
2.84041e-05
-1.01595e-05
2.90983e-05
-1.05783e-05
2.98211e-05
-1.10112e-05
3.05757e-05
-1.14592e-05
3.13658e-05
-1.19236e-05
3.21956e-05
-1.24055e-05
3.30701e-05
-1.29064e-05
3.39951e-05
-1.34279e-05
3.49776e-05
-1.39717e-05
3.60256e-05
-1.45398e-05
3.71489e-05
-1.51341e-05
3.83588e-05
-1.57569e-05
3.96687e-05
-1.64105e-05
4.10943e-05
-1.70973e-05
4.26538e-05
-1.78196e-05
4.43677e-05
-1.85798e-05
4.62593e-05
-1.938e-05
4.8354e-05
-2.02221e-05
5.0679e-05
-2.11076e-05
5.32618e-05
-2.20372e-05
5.61295e-05
-2.30111e-05
5.93062e-05
-2.40282e-05
6.28103e-05
-2.50865e-05
6.66518e-05
-2.61827e-05
7.08281e-05
-2.73121e-05
7.53207e-05
-2.84686e-05
8.00912e-05
-2.96445e-05
8.50784e-05
-3.08312e-05
9.01963e-05
-3.20188e-05
9.53341e-05
-3.3197e-05
0.000100358
-3.43553e-05
0.000105114
-3.54838e-05
0.000109437
-3.65738e-05
0.000113159
-3.76192e-05
0.000116117
-3.86165e-05
0.00011817
-3.95663e-05
0.000119202
-4.04734e-05
0.00011914
-4.13468e-05
0.000117953
-4.21996e-05
0.000115655
-4.30481e-05
0.000112303
0.000107987
-4.39098e-05
-1.10452e-09
1.97064e-07
-4.55776e-09
5.92127e-07
-1.05392e-08
9.94234e-07
-1.92325e-08
1.40318e-06
-3.08245e-08
1.81873e-06
-4.55054e-08
2.24064e-06
-6.34675e-08
2.66866e-06
-8.49051e-08
3.10251e-06
-1.10013e-07
3.5419e-06
-1.38988e-07
3.98655e-06
-1.72024e-07
4.43613e-06
-2.09316e-07
4.89032e-06
-2.51056e-07
5.3488e-06
-2.97434e-07
5.81123e-06
-3.48636e-07
6.27727e-06
-4.04844e-07
6.74658e-06
-4.66236e-07
7.21881e-06
-5.32984e-07
7.69362e-06
-6.05252e-07
8.17067e-06
-6.83199e-07
8.64963e-06
-7.66976e-07
9.13018e-06
-8.56725e-07
9.61201e-06
-9.5258e-07
1.00948e-05
-1.05467e-06
1.05783e-05
-1.1631e-06
1.10623e-05
-1.27798e-06
1.15465e-05
-1.39941e-06
1.20307e-05
-1.52747e-06
1.25147e-05
-1.66224e-06
1.29985e-05
-1.80377e-06
1.34819e-05
-1.95214e-06
1.39648e-05
-2.10738e-06
1.44472e-05
-2.26954e-06
1.49292e-05
-2.43863e-06
1.54108e-05
-2.6147e-06
1.58922e-05
-2.79774e-06
1.63735e-05
-2.98777e-06
1.68549e-05
-3.18481e-06
1.73368e-05
-3.38884e-06
1.78195e-05
-3.59989e-06
1.83034e-05
-3.81795e-06
1.87889e-05
-4.04303e-06
1.92767e-05
-4.27513e-06
1.97672e-05
-4.51429e-06
2.02612e-05
-4.76051e-06
2.07594e-05
-5.01385e-06
2.12625e-05
-5.27436e-06
2.17715e-05
-5.54209e-06
2.22873e-05
-5.81715e-06
2.28109e-05
-6.09964e-06
2.33433e-05
-6.3897e-06
2.38858e-05
-6.68749e-06
2.44397e-05
-6.99323e-06
2.50062e-05
-7.30715e-06
2.55869e-05
-7.62953e-06
2.61834e-05
-7.96071e-06
2.67974e-05
-8.30108e-06
2.74307e-05
-8.65107e-06
2.80856e-05
-9.0112e-06
2.87642e-05
-9.38206e-06
2.94691e-05
-9.7643e-06
3.02033e-05
-1.01587e-05
3.09701e-05
-1.0566e-05
3.17731e-05
-1.09873e-05
3.26168e-05
-1.14235e-05
3.35063e-05
-1.18758e-05
3.44474e-05
-1.23456e-05
3.54473e-05
-1.2834e-05
3.65141e-05
-1.33426e-05
3.76575e-05
-1.3873e-05
3.88892e-05
-1.44268e-05
4.02224e-05
-1.50054e-05
4.1673e-05
-1.56107e-05
4.3259e-05
-1.62439e-05
4.5001e-05
-1.69065e-05
4.69219e-05
-1.75995e-05
4.9047e-05
-1.83235e-05
5.1403e-05
-1.90787e-05
5.4017e-05
-1.98646e-05
5.69154e-05
-2.06799e-05
6.01216e-05
-2.15227e-05
6.36531e-05
-2.239e-05
6.7519e-05
-2.32778e-05
7.17159e-05
-2.41814e-05
7.62244e-05
-2.50953e-05
8.10051e-05
-2.60133e-05
8.59963e-05
-2.69286e-05
9.11117e-05
-2.78347e-05
9.62402e-05
-2.8725e-05
0.000101248
-2.95937e-05
0.000105982
-3.04363e-05
0.000110279
-3.12498e-05
0.000113972
-3.20334e-05
0.000116901
-3.2789e-05
0.000118925
-3.35214e-05
0.000119935
-3.42384e-05
0.000119857
-3.49506e-05
0.000118665
-3.56707e-05
0.000116375
-3.64127e-05
0.000113045
0.000108765
-3.71905e-05
-9.31914e-10
1.97996e-07
-3.87081e-09
5.95065e-07
-8.99415e-09
9.99357e-07
-1.64835e-08
1.41067e-06
-2.6524e-08
1.82877e-06
-3.93039e-08
2.25342e-06
-5.5014e-08
2.68437e-06
-7.3847e-08
3.12134e-06
-9.59968e-08
3.56405e-06
-1.21658e-07
4.01221e-06
-1.51023e-07
4.46549e-06
-1.84288e-07
4.92358e-06
-2.21641e-07
5.38615e-06
-2.63273e-07
5.85286e-06
-3.09369e-07
6.32337e-06
-3.6011e-07
6.79732e-06
-4.15673e-07
7.27438e-06
-4.76228e-07
7.75418e-06
-5.4194e-07
8.23639e-06
-6.12966e-07
8.72066e-06
-6.89456e-07
9.20667e-06
-7.71551e-07
9.6941e-06
-8.59383e-07
1.01826e-05
-9.53074e-07
1.0672e-05
-1.05274e-06
1.1162e-05
-1.15848e-06
1.16522e-05
-1.27038e-06
1.21426e-05
-1.38854e-06
1.26329e-05
-1.51301e-06
1.3123e-05
-1.64386e-06
1.36127e-05
-1.78114e-06
1.4102e-05
-1.92489e-06
1.45909e-05
-2.07513e-06
1.50794e-05
-2.23189e-06
1.55676e-05
-2.39518e-06
1.60555e-05
-2.56501e-06
1.65433e-05
-2.74136e-06
1.70313e-05
-2.92423e-06
1.75197e-05
-3.11361e-06
1.80089e-05
-3.30948e-06
1.84992e-05
-3.51183e-06
1.89913e-05
-3.72063e-06
1.94855e-05
-3.93588e-06
1.99825e-05
-4.15756e-06
2.04829e-05
-4.38566e-06
2.09875e-05
-4.6202e-06
2.14971e-05
-4.86118e-06
2.20125e-05
-5.10863e-06
2.25348e-05
-5.3626e-06
2.30648e-05
-5.62315e-06
2.36039e-05
-5.89036e-06
2.4153e-05
-6.16434e-06
2.47137e-05
-6.44523e-06
2.52871e-05
-6.73321e-06
2.58749e-05
-7.02848e-06
2.64787e-05
-7.33129e-06
2.71002e-05
-7.64194e-06
2.77414e-05
-7.96076e-06
2.84044e-05
-8.28816e-06
2.90916e-05
-8.6246e-06
2.98056e-05
-8.97059e-06
3.05493e-05
-9.32672e-06
3.13262e-05
-9.69366e-06
3.21401e-05
-1.00721e-05
3.29953e-05
-1.04629e-05
3.38971e-05
-1.0867e-05
3.48515e-05
-1.12852e-05
3.58655e-05
-1.17185e-05
3.69474e-05
-1.21681e-05
3.81071e-05
-1.26349e-05
3.9356e-05
-1.312e-05
4.07075e-05
-1.36243e-05
4.21773e-05
-1.41487e-05
4.37834e-05
-1.46938e-05
4.5546e-05
-1.52599e-05
4.74881e-05
-1.58471e-05
4.96342e-05
-1.64549e-05
5.20107e-05
-1.70821e-05
5.46443e-05
-1.77273e-05
5.75606e-05
-1.8388e-05
6.07822e-05
-1.90611e-05
6.43262e-05
-1.9743e-05
6.82009e-05
-2.04293e-05
7.24022e-05
-2.11153e-05
7.69104e-05
-2.17961e-05
8.16859e-05
-2.24668e-05
8.6667e-05
-2.31228e-05
9.17677e-05
-2.37604e-05
9.68778e-05
-2.43768e-05
0.000101864
-2.49707e-05
0.000106576
-2.55423e-05
0.000110851
-2.6094e-05
0.000114524
-2.66299e-05
0.000117437
-2.71567e-05
0.000119452
-2.76828e-05
0.000120461
-2.82186e-05
0.000120393
-2.87755e-05
0.000119222
-2.93656e-05
0.000116965
-3.00006e-05
0.00011368
0.000109455
-3.06906e-05
-7.73346e-10
1.9877e-07
-3.23927e-09
5.97531e-07
-7.57268e-09
1.00369e-06
-1.39527e-08
1.41705e-06
-2.2562e-08
1.83738e-06
-3.35867e-08
2.26444e-06
-4.72151e-08
2.698e-06
-6.36377e-08
3.13776e-06
-8.30461e-08
3.58346e-06
-1.05632e-07
4.03479e-06
-1.31589e-07
4.49145e-06
-1.61106e-07
4.9531e-06
-1.94374e-07
5.41942e-06
-2.31579e-07
5.89007e-06
-2.72905e-07
6.3647e-06
-3.18532e-07
6.84295e-06
-3.68633e-07
7.32448e-06
-4.23378e-07
7.80892e-06
-4.82929e-07
8.29594e-06
-5.47442e-07
8.78517e-06
-6.17063e-07
9.27629e-06
-6.91932e-07
9.76897e-06
-7.72177e-07
1.02629e-05
-8.57919e-07
1.07578e-05
-9.49267e-07
1.12533e-05
-1.04632e-06
1.17493e-05
-1.14917e-06
1.22454e-05
-1.25788e-06
1.27416e-05
-1.37253e-06
1.32376e-05
-1.49316e-06
1.37333e-05
-1.61983e-06
1.42287e-05
-1.75255e-06
1.47237e-05
-1.89136e-06
1.52182e-05
-2.03626e-06
1.57125e-05
-2.18725e-06
1.62064e-05
-2.34432e-06
1.67003e-05
-2.50745e-06
1.71944e-05
-2.67663e-06
1.76888e-05
-2.85182e-06
1.81841e-05
-3.03298e-06
1.86804e-05
-3.22008e-06
1.91784e-05
-3.41307e-06
1.96785e-05
-3.61191e-06
2.01813e-05
-3.81657e-06
2.06876e-05
-4.02701e-06
2.11979e-05
-4.24319e-06
2.17133e-05
-4.4651e-06
2.22344e-05
-4.69272e-06
2.27624e-05
-4.92604e-06
2.32982e-05
-5.16509e-06
2.38429e-05
-5.4099e-06
2.43978e-05
-5.66052e-06
2.49643e-05
-5.91702e-06
2.55436e-05
-6.17951e-06
2.61374e-05
-6.44813e-06
2.67473e-05
-6.72303e-06
2.73751e-05
-7.00442e-06
2.80228e-05
-7.29254e-06
2.86925e-05
-7.58769e-06
2.93867e-05
-7.89019e-06
3.01081e-05
-8.20043e-06
3.08596e-05
-8.51883e-06
3.16446e-05
-8.84588e-06
3.24671e-05
-9.18211e-06
3.33315e-05
-9.52809e-06
3.42431e-05
-9.88443e-06
3.52078e-05
-1.02518e-05
3.62328e-05
-1.06308e-05
3.73264e-05
-1.1022e-05
3.84984e-05
-1.14262e-05
3.97601e-05
-1.18436e-05
4.1125e-05
-1.22747e-05
4.26085e-05
-1.27197e-05
4.42283e-05
-1.31783e-05
4.60046e-05
-1.365e-05
4.79597e-05
-1.41338e-05
5.0118e-05
-1.46282e-05
5.25052e-05
-1.51312e-05
5.51473e-05
-1.564e-05
5.80694e-05
-1.61512e-05
6.12934e-05
-1.66609e-05
6.48359e-05
-1.71646e-05
6.87047e-05
-1.76578e-05
7.28954e-05
-1.81358e-05
7.73883e-05
-1.85942e-05
8.21443e-05
-1.90294e-05
8.71022e-05
-1.94389e-05
9.21773e-05
-1.98217e-05
9.72605e-05
-2.01784e-05
0.000102221
-2.05117e-05
0.00010691
-2.08264e-05
0.000111166
-2.11295e-05
0.000114827
-2.143e-05
0.000117737
-2.17384e-05
0.00011976
-2.20665e-05
0.000120789
-2.24269e-05
0.000120753
-2.28317e-05
0.000119626
-2.32921e-05
0.000117425
-2.38174e-05
0.000114206
0.000110051
-2.44143e-05
-6.29299e-10
1.99399e-07
-2.6648e-09
5.99567e-07
-6.27861e-09
1.0073e-06
-1.16469e-08
1.42241e-06
-1.89497e-08
1.84468e-06
-2.83698e-08
2.27386e-06
-4.00927e-08
2.70972e-06
-5.43061e-08
3.15198e-06
-7.11984e-08
3.60035e-06
-9.0959e-08
4.05456e-06
-1.13777e-07
4.51427e-06
-1.3984e-07
4.97917e-06
-1.69336e-07
5.44892e-06
-2.02447e-07
5.92318e-06
-2.39355e-07
6.4016e-06
-2.80236e-07
6.88383e-06
-3.25261e-07
7.3695e-06
-3.74597e-07
7.85826e-06
-4.28403e-07
8.34974e-06
-4.8683e-07
8.8436e-06
-5.50024e-07
9.33949e-06