/*--------------------------------*- C++ -*----------------------------------*\
| =========                 |                                                 |
| \\      /  F ield         | OpenFOAM: The Open Source CFD Toolbox           |
|  \\    /   O peration     | Version:  2406                                  |
|   \\  /    A nd           | Website:  www.openfoam.com                      |
|    \\/     M anipulation  |                                                 |
\*---------------------------------------------------------------------------*/
FoamFile
{
    version     2.0;
    format      ascii;
    arch        "LSB;label=32;scalar=64";
    class       volVectorField;
    location    "6.975";
    object      U;
}
// * * * * * * * * * * * * * * * * * * * * * * * * * * * * * * * * * * * * * //

dimensions      [0 1 -1 0 0 0 0];

internalField   nonuniform List<vector> 
40000
(
(-1.82039e-06 0.00180279 0)
(-1.18964e-05 0.00532053 0)
(-3.50133e-05 0.0087774 0)
(-7.08441e-05 0.0121714 0)
(-0.000119249 0.0155004 0)
(-0.00018057 0.0187627 0)
(-0.000255215 0.0219562 0)
(-0.000343554 0.0250793 0)
(-0.000445939 0.0281303 0)
(-0.00056272 0.0311076 0)
(-0.000694243 0.0340097 0)
(-0.00084085 0.0368353 0)
(-0.00100287 0.0395832 0)
(-0.00118064 0.0422523 0)
(-0.00137447 0.0448417 0)
(-0.00158467 0.0473507 0)
(-0.00181154 0.0497785 0)
(-0.00205536 0.0521248 0)
(-0.00231641 0.0543892 0)
(-0.00259495 0.0565718 0)
(-0.00289123 0.0586725 0)
(-0.00320549 0.0606916 0)
(-0.00353795 0.0626296 0)
(-0.00388883 0.0644872 0)
(-0.00425833 0.0662652 0)
(-0.00464664 0.0679647 0)
(-0.00505395 0.0695869 0)
(-0.00548042 0.0711332 0)
(-0.00592622 0.0726052 0)
(-0.0063915 0.0740048 0)
(-0.00687643 0.075334 0)
(-0.00738116 0.0765949 0)
(-0.00790584 0.0777897 0)
(-0.00845063 0.0789211 0)
(-0.00901569 0.0799916 0)
(-0.0096012 0.0810039 0)
(-0.0102073 0.081961 0)
(-0.0108343 0.0828659 0)
(-0.0114824 0.0837217 0)
(-0.0121518 0.0845315 0)
(-0.0128427 0.0852986 0)
(-0.0135556 0.0860264 0)
(-0.0142908 0.0867181 0)
(-0.0150487 0.0873774 0)
(-0.0158297 0.0880075 0)
(-0.0166344 0.0886119 0)
(-0.0174633 0.0891941 0)
(-0.0183172 0.0897576 0)
(-0.0191968 0.0903058 0)
(-0.0201029 0.090842 0)
(-0.0210364 0.0913699 0)
(-0.0219986 0.0918926 0)
(-0.0229904 0.0924137 0)
(-0.0240134 0.0929365 0)
(-0.0250689 0.0934645 0)
(-0.0261587 0.0940011 0)
(-0.0272846 0.0945499 0)
(-0.0284488 0.0951145 0)
(-0.0296536 0.095699 0)
(-0.0309016 0.0963075 0)
(-0.032196 0.0969447 0)
(-0.0335399 0.0976157 0)
(-0.0349374 0.0983264 0)
(-0.0363926 0.0990839 0)
(-0.0379107 0.0998961 0)
(-0.0394971 0.100773 0)
(-0.0411584 0.101726 0)
(-0.042902 0.102769 0)
(-0.0447363 0.10392 0)
(-0.0466712 0.105199 0)
(-0.0487179 0.106631 0)
(-0.0508892 0.108245 0)
(-0.0531998 0.110077 0)
(-0.0556664 0.112166 0)
(-0.0583076 0.114558 0)
(-0.0611442 0.117304 0)
(-0.0641989 0.12046 0)
(-0.067496 0.124082 0)
(-0.0710611 0.128227 0)
(-0.0749197 0.132946 0)
(-0.0790967 0.13828 0)
(-0.0836144 0.144256 0)
(-0.0884908 0.150873 0)
(-0.0937373 0.158103 0)
(-0.0993562 0.165877 0)
(-0.105338 0.174082 0)
(-0.111661 0.182557 0)
(-0.118285 0.191091 0)
(-0.125155 0.199427 0)
(-0.132199 0.20727 0)
(-0.139329 0.214297 0)
(-0.146445 0.220176 0)
(-0.153437 0.224581 0)
(-0.160193 0.227217 0)
(-0.166605 0.227837 0)
(-0.172577 0.226263 0)
(-0.178032 0.222399 0)
(-0.182919 0.216238 0)
(-0.18722 0.207864 0)
(-0.190949 0.197442 0)
(-1.65145e-06 0.00183039 0)
(-1.09766e-05 0.00540287 0)
(-3.24779e-05 0.00891444 0)
(-6.58573e-05 0.012363 0)
(-0.000111016 0.0157467 0)
(-0.000168313 0.0190633 0)
(-0.000238168 0.0223111 0)
(-0.000320963 0.0254882 0)
(-0.000417066 0.0285929 0)
(-0.000526843 0.0316236 0)
(-0.000650658 0.0345788 0)
(-0.000788869 0.0374571 0)
(-0.000941829 0.0402572 0)
(-0.00110988 0.0429781 0)
(-0.00129337 0.0456186 0)
(-0.00149261 0.0481781 0)
(-0.00170793 0.0506558 0)
(-0.00193963 0.0530512 0)
(-0.002188 0.0553639 0)
(-0.00245333 0.057594 0)
(-0.00273588 0.0597413 0)
(-0.00303591 0.0618061 0)
(-0.00335366 0.0637889 0)
(-0.00368937 0.0656902 0)
(-0.00404324 0.067511 0)
(-0.00441549 0.0692521 0)
(-0.0048063 0.0709148 0)
(-0.00521586 0.0725006 0)
(-0.00564433 0.0740111 0)
(-0.0060919 0.075448 0)
(-0.00655871 0.0768134 0)
(-0.00704493 0.0781094 0)
(-0.0075507 0.0793383 0)
(-0.00807618 0.0805027 0)
(-0.00862154 0.0816053 0)
(-0.00918693 0.0826487 0)
(-0.00977254 0.0836361 0)
(-0.0103786 0.0845703 0)
(-0.0110052 0.0854547 0)
(-0.0116527 0.0862924 0)
(-0.0123213 0.0870869 0)
(-0.0130113 0.0878414 0)
(-0.013723 0.0885597 0)
(-0.0144569 0.089245 0)
(-0.0152133 0.0899011 0)
(-0.0159927 0.0905315 0)
(-0.0167957 0.0911397 0)
(-0.017623 0.0917295 0)
(-0.0184751 0.0923044 0)
(-0.019353 0.0928679 0)
(-0.0202575 0.0934238 0)
(-0.0211895 0.0939756 0)
(-0.0221504 0.0945269 0)
(-0.0231413 0.0950813 0)
(-0.0241637 0.0956425 0)
(-0.0252192 0.0962142 0)
(-0.0263095 0.0968004 0)
(-0.0274368 0.097405 0)
(-0.0286033 0.0980323 0)
(-0.0298116 0.098687 0)
(-0.0310646 0.0993741 0)
(-0.0323656 0.100099 0)
(-0.0337182 0.100869 0)
(-0.0351267 0.101692 0)
(-0.0365959 0.102575 0)
(-0.0381311 0.10353 0)
(-0.0397387 0.10457 0)
(-0.0414258 0.10571 0)
(-0.0432005 0.106968 0)
(-0.0450721 0.108366 0)
(-0.0470513 0.109932 0)
(-0.0491502 0.111696 0)
(-0.0513827 0.113695 0)
(-0.053764 0.11597 0)
(-0.0563115 0.118571 0)
(-0.0590441 0.121548 0)
(-0.0619823 0.124958 0)
(-0.0651478 0.128859 0)
(-0.0685627 0.133305 0)
(-0.0722493 0.138347 0)
(-0.0762281 0.144022 0)
(-0.080517 0.150348 0)
(-0.0851292 0.15732 0)
(-0.0900712 0.164897 0)
(-0.0953409 0.172997 0)
(-0.100925 0.181494 0)
(-0.106797 0.190209 0)
(-0.112918 0.198915 0)
(-0.119232 0.207341 0)
(-0.125669 0.215176 0)
(-0.132147 0.22209 0)
(-0.138573 0.227742 0)
(-0.144848 0.231811 0)
(-0.150875 0.234007 0)
(-0.156561 0.234099 0)
(-0.161828 0.231932 0)
(-0.166618 0.227436 0)
(-0.170902 0.220638 0)
(-0.174676 0.211653 0)
(-0.177972 0.200675 0)
(-1.51485e-06 0.00185549 0)
(-1.01108e-05 0.00547792 0)
(-2.99764e-05 0.00903957 0)
(-6.08735e-05 0.0125383 0)
(-0.000102751 0.0159722 0)
(-0.000155981 0.0193391 0)
(-0.000220991 0.0226372 0)
(-0.000298178 0.0258645 0)
(-0.000387921 0.0290194 0)
(-0.000490604 0.0321001 0)
(-0.000606606 0.0351051 0)
(-0.000736302 0.038033 0)
(-0.000880062 0.0408824 0)
(-0.00103825 0.0436522 0)
(-0.00121122 0.0463412 0)
(-0.00139931 0.0489487 0)
(-0.00160286 0.0514739 0)
(-0.0018222 0.0539162 0)
(-0.00205764 0.0562752 0)
(-0.00230947 0.0585508 0)
(-0.00257798 0.0607429 0)
(-0.00286345 0.0628518 0)
(-0.00316613 0.0648777 0)
(-0.00348626 0.0668213 0)
(-0.00382407 0.0686834 0)
(-0.00417979 0.0704649 0)
(-0.00455361 0.0721671 0)
(-0.00494573 0.0737913 0)
(-0.00535632 0.0753391 0)
(-0.00578555 0.0768123 0)
(-0.0062336 0.0782129 0)
(-0.0067006 0.0795432 0)
(-0.00718673 0.0808053 0)
(-0.00769212 0.082002 0)
(-0.00821693 0.0831357 0)
(-0.00876131 0.0842095 0)
(-0.00932543 0.0852262 0)
(-0.00990947 0.0861891 0)
(-0.0105136 0.0871012 0)
(-0.0111381 0.0879661 0)
(-0.0117831 0.088787 0)
(-0.0124489 0.0895675 0)
(-0.0131359 0.0903112 0)
(-0.0138443 0.0910217 0)
(-0.0145745 0.0917027 0)
(-0.0153271 0.0923579 0)
(-0.0161024 0.092991 0)
(-0.0169011 0.0936058 0)
(-0.0177239 0.0942061 0)
(-0.0185714 0.0947955 0)
(-0.0194445 0.095378 0)
(-0.0203441 0.0959572 0)
(-0.0212714 0.0965369 0)
(-0.0222275 0.0971211 0)
(-0.0232137 0.0977137 0)
(-0.0242316 0.0983185 0)
(-0.025283 0.0989399 0)
(-0.0263697 0.099582 0)
(-0.0274939 0.10025 0)
(-0.0286581 0.100948 0)
(-0.029865 0.101682 0)
(-0.0311179 0.102458 0)
(-0.0324201 0.103284 0)
(-0.0337757 0.104168 0)
(-0.0351894 0.105118 0)
(-0.0366662 0.106147 0)
(-0.0382121 0.107269 0)
(-0.0398338 0.1085 0)
(-0.041539 0.109859 0)
(-0.0433364 0.111369 0)
(-0.045236 0.11306 0)
(-0.047249 0.114964 0)
(-0.049388 0.117118 0)
(-0.051667 0.119566 0)
(-0.0541017 0.122358 0)
(-0.0567088 0.125547 0)
(-0.0595065 0.129189 0)
(-0.0625135 0.133341 0)
(-0.0657488 0.138059 0)
(-0.0692307 0.143387 0)
(-0.0729758 0.149361 0)
(-0.0769976 0.155993 0)
(-0.081305 0.163269 0)
(-0.0859003 0.171138 0)
(-0.0907778 0.179508 0)
(-0.0959215 0.188238 0)
(-0.101304 0.197136 0)
(-0.106885 0.205962 0)
(-0.112612 0.21443 0)
(-0.11842 0.222219 0)
(-0.124234 0.228992 0)
(-0.129969 0.234406 0)
(-0.135542 0.238143 0)
(-0.140867 0.239922 0)
(-0.14587 0.23953 0)
(-0.15049 0.236831 0)
(-0.154688 0.231784 0)
(-0.158448 0.224443 0)
(-0.161784 0.214952 0)
(-0.164736 0.203531 0)
(-1.37963e-06 0.00187815 0)
(-9.2472e-06 0.00554583 0)
(-2.74761e-05 0.00915303 0)
(-5.58886e-05 0.0126976 0)
(-9.44802e-05 0.0161775 0)
(-0.000143634 0.0195907 0)
(-0.000203787 0.0229352 0)
(-0.000275346 0.026209 0)
(-0.000358706 0.0294105 0)
(-0.000454262 0.0325379 0)
(-0.000562409 0.0355895 0)
(-0.000683537 0.0385638 0)
(-0.000818033 0.0414596 0)
(-0.000966274 0.0442755 0)
(-0.00112863 0.0470104 0)
(-0.00130547 0.0496635 0)
(-0.00149713 0.0522338 0)
(-0.00170397 0.0547208 0)
(-0.00192631 0.0571241 0)
(-0.00216446 0.0594433 0)
(-0.00241873 0.0616784 0)
(-0.00268939 0.0638295 0)
(-0.00297673 0.065897 0)
(-0.00328101 0.0678814 0)
(-0.00360245 0.0697834 0)
(-0.00394129 0.071604 0)
(-0.00429774 0.0733443 0)
(-0.004672 0.0750056 0)
(-0.00506425 0.0765897 0)
(-0.00547467 0.0780982 0)
(-0.00590342 0.0795331 0)
(-0.00635066 0.0808966 0)
(-0.00681652 0.082191 0)
(-0.00730117 0.0834189 0)
(-0.00780473 0.084583 0)
(-0.00832735 0.0856862 0)
(-0.00886918 0.0867315 0)
(-0.00943037 0.087722 0)
(-0.0100111 0.088661 0)
(-0.0106116 0.089552 0)
(-0.0112319 0.0903984 0)
(-0.0118725 0.0912038 0)
(-0.0125334 0.0919719 0)
(-0.0132151 0.0927065 0)
(-0.0139178 0.0934112 0)
(-0.014642 0.09409 0)
(-0.0153881 0.0947467 0)
(-0.0161566 0.0953851 0)
(-0.0169482 0.0960093 0)
(-0.0177634 0.096623 0)
(-0.018603 0.0972303 0)
(-0.019468 0.0978351 0)
(-0.0203593 0.0984414 0)
(-0.021278 0.0990533 0)
(-0.0222254 0.099675 0)
(-0.0232029 0.100311 0)
(-0.024212 0.100965 0)
(-0.0252547 0.101642 0)
(-0.0263329 0.102347 0)
(-0.027449 0.103085 0)
(-0.0286055 0.103863 0)
(-0.0298055 0.104687 0)
(-0.0310521 0.105565 0)
(-0.0323493 0.106505 0)
(-0.0337013 0.107518 0)
(-0.0351129 0.108616 0)
(-0.0365896 0.109814 0)
(-0.0381378 0.111128 0)
(-0.0397644 0.112581 0)
(-0.0414776 0.114195 0)
(-0.0432864 0.116001 0)
(-0.045201 0.118033 0)
(-0.0472326 0.120329 0)
(-0.0493939 0.122935 0)
(-0.0516984 0.1259 0)
(-0.0541608 0.129278 0)
(-0.0567966 0.133127 0)
(-0.0596215 0.137502 0)
(-0.0626511 0.142456 0)
(-0.0659 0.148034 0)
(-0.0693809 0.154264 0)
(-0.0731032 0.161155 0)
(-0.0770721 0.168685 0)
(-0.0812863 0.176795 0)
(-0.0857375 0.185381 0)
(-0.0904081 0.194291 0)
(-0.0952705 0.203322 0)
(-0.100287 0.212222 0)
(-0.105407 0.220694 0)
(-0.110574 0.228411 0)
(-0.115721 0.235029 0)
(-0.120775 0.240208 0)
(-0.125665 0.243631 0)
(-0.130322 0.24503 0)
(-0.134687 0.244207 0)
(-0.138716 0.241048 0)
(-0.142384 0.235535 0)
(-0.14569 0.227747 0)
(-0.148658 0.217855 0)
(-0.151334 0.206096 0)
(-1.2455e-06 0.00189844 0)
(-8.39064e-06 0.00560686 0)
(-2.49957e-05 0.00925524 0)
(-5.09411e-05 0.0128414 0)
(-8.62681e-05 0.0163633 0)
(-0.000131371 0.0198188 0)
(-0.000186692 0.0232059 0)
(-0.000252649 0.0265227 0)
(-0.000329648 0.0297673 0)
(-0.000418099 0.032938 0)
(-0.000518409 0.036033 0)
(-0.000630981 0.0390509 0)
(-0.000756217 0.0419901 0)
(-0.00089451 0.0448494 0)
(-0.00104624 0.0476276 0)
(-0.0012118 0.0503238 0)
(-0.00139154 0.0529369 0)
(-0.00158582 0.0554664 0)
(-0.00179499 0.0579118 0)
(-0.00201937 0.0602726 0)
(-0.00225928 0.0625489 0)
(-0.00251503 0.0647406 0)
(-0.00278688 0.066848 0)
(-0.00307512 0.0688716 0)
(-0.00337998 0.070812 0)
(-0.00370172 0.0726703 0)
(-0.00404054 0.0744474 0)
(-0.00439666 0.0761448 0)
(-0.00477025 0.0777639 0)
(-0.00516149 0.0793065 0)
(-0.00557055 0.0807745 0)
(-0.00599758 0.0821703 0)
(-0.00644271 0.083496 0)
(-0.00690609 0.0847542 0)
(-0.00738783 0.0859476 0)
(-0.00788808 0.0870792 0)
(-0.00840695 0.088152 0)
(-0.00894459 0.0891692 0)
(-0.00950113 0.0901341 0)
(-0.0100767 0.0910502 0)
(-0.0106716 0.091921 0)
(-0.0112858 0.0927502 0)
(-0.0119197 0.0935416 0)
(-0.0125736 0.0942989 0)
(-0.0132476 0.0950261 0)
(-0.0139421 0.0957271 0)
(-0.0146576 0.0964059 0)
(-0.0153944 0.0970664 0)
(-0.0161532 0.0977128 0)
(-0.0169344 0.098349 0)
(-0.0177388 0.0989793 0)
(-0.0185672 0.0996077 0)
(-0.0194203 0.100238 0)
(-0.0202994 0.100876 0)
(-0.0212054 0.101524 0)
(-0.0221398 0.102188 0)
(-0.0231039 0.102872 0)
(-0.0240994 0.103581 0)
(-0.0251283 0.10432 0)
(-0.0261926 0.105096 0)
(-0.0272948 0.105913 0)
(-0.0284376 0.106781 0)
(-0.029624 0.107706 0)
(-0.0308576 0.108698 0)
(-0.0321423 0.109768 0)
(-0.0334826 0.110929 0)
(-0.0348835 0.112196 0)
(-0.0363506 0.113587 0)
(-0.0378905 0.115124 0)
(-0.0395104 0.116833 0)
(-0.0412183 0.118743 0)
(-0.0430233 0.12089 0)
(-0.0449352 0.123313 0)
(-0.0469649 0.126058 0)
(-0.049124 0.129177 0)
(-0.0514248 0.132722 0)
(-0.0538801 0.13675 0)
(-0.0565025 0.141317 0)
(-0.0593043 0.146474 0)
(-0.0622965 0.152263 0)
(-0.065488 0.158708 0)
(-0.0688846 0.165812 0)
(-0.0724879 0.173548 0)
(-0.0762941 0.181847 0)
(-0.0802929 0.190599 0)
(-0.0844662 0.199641 0)
(-0.0887876 0.208761 0)
(-0.093222 0.217698 0)
(-0.0977258 0.226146 0)
(-0.102248 0.233775 0)
(-0.106732 0.240236 0)
(-0.111119 0.245191 0)
(-0.11535 0.24833 0)
(-0.119372 0.249395 0)
(-0.12314 0.248204 0)
(-0.126627 0.24466 0)
(-0.129819 0.238768 0)
(-0.132728 0.230628 0)
(-0.135382 0.22043 0)
(-0.137831 0.208427 0)
(-1.11385e-06 0.00191647 0)
(-7.54797e-06 0.00566127 0)
(-2.25532e-05 0.00934661 0)
(-4.60675e-05 0.0129703 0)
(-7.81755e-05 0.0165303 0)
(-0.000119281 0.0200243 0)
(-0.000169831 0.0234505 0)
(-0.000230253 0.0268067 0)
(-0.000300964 0.030091 0)
(-0.000382384 0.0333018 0)
(-0.000474932 0.0364371 0)
(-0.000579025 0.0394955 0)
(-0.000695076 0.0424754 0)
(-0.00082349 0.0453755 0)
(-0.000964667 0.0481944 0)
(-0.001119 0.0509312 0)
(-0.00128686 0.0535849 0)
(-0.00146863 0.0561547 0)
(-0.00166465 0.0586401 0)
(-0.00187528 0.0610406 0)
(-0.00210083 0.0633561 0)
(-0.00234162 0.0655866 0)
(-0.00259795 0.0677322 0)
(-0.00287009 0.0697935 0)
(-0.00315829 0.0717709 0)
(-0.00346281 0.0736654 0)
(-0.00378387 0.075478 0)
(-0.00412167 0.07721 0)
(-0.0044764 0.0788629 0)
(-0.00484824 0.0804385 0)
(-0.00523735 0.0819386 0)
(-0.00564386 0.0833654 0)
(-0.00606793 0.0847213 0)
(-0.00650965 0.0860087 0)
(-0.00696916 0.0872305 0)
(-0.00744656 0.0883895 0)
(-0.00794196 0.0894887 0)
(-0.00845547 0.0905315 0)
(-0.00898721 0.0915212 0)
(-0.00953729 0.0924612 0)
(-0.0101058 0.0933552 0)
(-0.010693 0.094207 0)
(-0.011299 0.0950203 0)
(-0.0119241 0.0957991 0)
(-0.0125683 0.0965473 0)
(-0.0132321 0.097269 0)
(-0.0139158 0.0979683 0)
(-0.0146197 0.0986492 0)
(-0.0153442 0.099316 0)
(-0.01609 0.0999729 0)
(-0.0168575 0.100624 0)
(-0.0176475 0.101274 0)
(-0.0184607 0.101927 0)
(-0.0192981 0.102587 0)
(-0.0201606 0.10326 0)
(-0.0210494 0.103949 0)
(-0.0219659 0.104659 0)
(-0.0229116 0.105397 0)
(-0.0238881 0.106167 0)
(-0.0248975 0.106976 0)
(-0.0259418 0.10783 0)
(-0.0270236 0.108736 0)
(-0.0281457 0.109704 0)
(-0.0293111 0.110742 0)
(-0.0305236 0.111864 0)
(-0.0317871 0.113081 0)
(-0.0331061 0.11441 0)
(-0.0344857 0.11587 0)
(-0.0359316 0.117483 0)
(-0.0374501 0.119275 0)
(-0.0390484 0.121277 0)
(-0.040734 0.123524 0)
(-0.0425154 0.126059 0)
(-0.0444016 0.128926 0)
(-0.0464022 0.132176 0)
(-0.0485272 0.135864 0)
(-0.0507863 0.140045 0)
(-0.0531894 0.144773 0)
(-0.0557454 0.150098 0)
(-0.0584617 0.156058 0)
(-0.0613437 0.162676 0)
(-0.064394 0.169949 0)
(-0.0676112 0.177843 0)
(-0.0709895 0.186286 0)
(-0.0745173 0.195157 0)
(-0.0781768 0.204289 0)
(-0.081944 0.21346 0)
(-0.0857876 0.222403 0)
(-0.0896707 0.230808 0)
(-0.0935508 0.238339 0)
(-0.0973822 0.24465 0)
(-0.101118 0.249402 0)
(-0.104714 0.252294 0)
(-0.108131 0.253078 0)
(-0.11134 0.251583 0)
(-0.114325 0.247732 0)
(-0.117085 0.241546 0)
(-0.119638 0.233143 0)
(-0.122017 0.222728 0)
(-0.124269 0.210564 0)
(-9.85341e-07 0.00193234 0)
(-6.72495e-06 0.00570936 0)
(-2.0167e-05 0.00942765 0)
(-4.13041e-05 0.013085 0)
(-7.02627e-05 0.0166792 0)
(-0.000107454 0.0202082 0)
(-0.000153331 0.0236698 0)
(-0.000208326 0.0270621 0)
(-0.000272867 0.030383 0)
(-0.000347382 0.0336307 0)
(-0.000432302 0.0368034 0)
(-0.000528054 0.0398995 0)
(-0.00063506 0.0429173 0)
(-0.000753738 0.0458554 0)
(-0.000884499 0.0487126 0)
(-0.00102774 0.0514876 0)
(-0.00118387 0.0541795 0)
(-0.00135325 0.0567875 0)
(-0.00153625 0.0593108 0)
(-0.00173323 0.0617491 0)
(-0.00194452 0.064102 0)
(-0.00217045 0.0663695 0)
(-0.00241131 0.0685517 0)
(-0.0026674 0.0706489 0)
(-0.00293897 0.0726618 0)
(-0.00322628 0.0745911 0)
(-0.00352955 0.0764378 0)
(-0.00384899 0.0782031 0)
(-0.00418479 0.0798886 0)
(-0.00453713 0.0814958 0)
(-0.00490614 0.0830268 0)
(-0.00529198 0.0844835 0)
(-0.00569477 0.0858684 0)
(-0.0061146 0.0871839 0)
(-0.00655159 0.0884329 0)
(-0.00700582 0.0896181 0)
(-0.00747738 0.0907427 0)
(-0.00796635 0.0918099 0)
(-0.0084728 0.0928231 0)
(-0.00899684 0.0937859 0)
(-0.00953855 0.0947019 0)
(-0.010098 0.0955749 0)
(-0.0106754 0.0964088 0)
(-0.0112709 0.0972076 0)
(-0.0118846 0.0979753 0)
(-0.0125167 0.0987161 0)
(-0.0131676 0.0994342 0)
(-0.0138374 0.100134 0)
(-0.0145266 0.100819 0)
(-0.0152356 0.101495 0)
(-0.0159649 0.102165 0)
(-0.016715 0.102834 0)
(-0.0174867 0.103506 0)
(-0.0182806 0.104187 0)
(-0.0190977 0.10488 0)
(-0.019939 0.105592 0)
(-0.0208057 0.106326 0)
(-0.0216991 0.107089 0)
(-0.0226207 0.107886 0)
(-0.0235722 0.108724 0)
(-0.0245556 0.109609 0)
(-0.0255731 0.11055 0)
(-0.0266271 0.111555 0)
(-0.0277205 0.112635 0)
(-0.0288564 0.113801 0)
(-0.0300383 0.115068 0)
(-0.0312702 0.116451 0)
(-0.0325566 0.117971 0)
(-0.0339023 0.119649 0)
(-0.0353126 0.121514 0)
(-0.0367936 0.123595 0)
(-0.0383516 0.12593 0)
(-0.0399934 0.128559 0)
(-0.0417263 0.131529 0)
(-0.0435577 0.13489 0)
(-0.045495 0.138695 0)
(-0.0475455 0.143 0)
(-0.0497159 0.147858 0)
(-0.0520118 0.153317 0)
(-0.0544375 0.159411 0)
(-0.0569951 0.166161 0)
(-0.0596841 0.17356 0)
(-0.0625007 0.181569 0)
(-0.0654374 0.190111 0)
(-0.0684822 0.19906 0)
(-0.0716184 0.208242 0)
(-0.0748245 0.217432 0)
(-0.0780746 0.226357 0)
(-0.0813383 0.234705 0)
(-0.0845827 0.242138 0)
(-0.0877731 0.248309 0)
(-0.0908756 0.252887 0)
(-0.0938593 0.255573 0)
(-0.0966993 0.25613 0)
(-0.0993796 0.2544 0)
(-0.101895 0.250317 0)
(-0.104255 0.243918 0)
(-0.106481 0.235335 0)
(-0.108608 0.224781 0)
(-0.110679 0.212528 0)
(-8.61041e-07 0.00194617 0)
(-5.92793e-06 0.00575148 0)
(-1.78545e-05 0.00949889 0)
(-3.66857e-05 0.0131862 0)
(-6.25871e-05 0.0168111 0)
(-9.5977e-05 0.0203716 0)
(-0.00013731 0.0238653 0)
(-0.000187027 0.0272904 0)
(-0.00024556 0.0306447 0)
(-0.000313348 0.0339264 0)
(-0.000390829 0.0371336 0)
(-0.000478437 0.0402645 0)
(-0.000576605 0.0433176 0)
(-0.00068576 0.0462912 0)
(-0.000806322 0.0491842 0)
(-0.000938702 0.0519951 0)
(-0.0010833 0.054723 0)
(-0.00124051 0.057367 0)
(-0.0014107 0.0599263 0)
(-0.00159424 0.0624003 0)
(-0.00179147 0.0647887 0)
(-0.00200271 0.0670914 0)
(-0.00222829 0.0693085 0)
(-0.00246848 0.0714401 0)
(-0.00272357 0.0734869 0)
(-0.00299379 0.0754495 0)
(-0.00327938 0.0773288 0)
(-0.00358054 0.0791261 0)
(-0.00389746 0.0808428 0)
(-0.00423031 0.0824805 0)
(-0.00457924 0.084041 0)
(-0.00494436 0.0855264 0)
(-0.0053258 0.0869391 0)
(-0.00572364 0.0882815 0)
(-0.00613797 0.0895564 0)
(-0.00656885 0.0907667 0)
(-0.00701634 0.0919154 0)
(-0.0074805 0.0930057 0)
(-0.00796136 0.0940413 0)
(-0.00845899 0.0950255 0)
(-0.00897343 0.0959621 0)
(-0.00950474 0.096855 0)
(-0.010053 0.0977081 0)
(-0.0106183 0.0985254 0)
(-0.0112008 0.099311 0)
(-0.0118005 0.100069 0)
(-0.0124178 0.100804 0)
(-0.0130527 0.101521 0)
(-0.0137056 0.102222 0)
(-0.0143768 0.102914 0)
(-0.0150667 0.103601 0)
(-0.0157757 0.104287 0)
(-0.0165044 0.104976 0)
(-0.0172535 0.105675 0)
(-0.0180236 0.106387 0)
(-0.0188157 0.107117 0)
(-0.0196307 0.107872 0)
(-0.0204697 0.108656 0)
(-0.0213342 0.109477 0)
(-0.0222255 0.110339 0)
(-0.0231453 0.111252 0)
(-0.0240956 0.112222 0)
(-0.0250785 0.113259 0)
(-0.0260964 0.114374 0)
(-0.027152 0.115578 0)
(-0.0282484 0.116887 0)
(-0.0293889 0.118317 0)
(-0.0305772 0.119887 0)
(-0.0318174 0.121622 0)
(-0.0331139 0.123547 0)
(-0.0344714 0.125695 0)
(-0.035895 0.128102 0)
(-0.0373899 0.130809 0)
(-0.0389615 0.133862 0)
(-0.0406151 0.137311 0)
(-0.0423557 0.14121 0)
(-0.044188 0.145612 0)
(-0.0461156 0.15057 0)
(-0.0481411 0.156128 0)
(-0.0502658 0.16232 0)
(-0.0524886 0.169162 0)
(-0.0548065 0.176646 0)
(-0.0572135 0.184729 0)
(-0.0597008 0.193329 0)
(-0.0622565 0.202317 0)
(-0.0648654 0.211516 0)
(-0.0675094 0.220697 0)
(-0.0701677 0.229585 0)
(-0.0728177 0.237867 0)
(-0.0754357 0.245205 0)
(-0.0779984 0.251254 0)
(-0.0804843 0.255687 0)
(-0.082876 0.258211 0)
(-0.0851615 0.258597 0)
(-0.087337 0.256697 0)
(-0.0894076 0.252456 0)
(-0.0913886 0.245921 0)
(-0.0933052 0.237231 0)
(-0.0951912 0.226609 0)
(-0.0970857 0.214329 0)
(-7.41846e-07 0.00195808 0)
(-5.16246e-06 0.00578797 0)
(-1.5632e-05 0.00956091 0)
(-3.22451e-05 0.0132746 0)
(-5.5204e-05 0.0169269 0)
(-8.49319e-05 0.0205155 0)
(-0.000121886 0.0240383 0)
(-0.000166509 0.0274931 0)
(-0.000219241 0.0308779 0)
(-0.000280527 0.0341906 0)
(-0.00035081 0.0374295 0)
(-0.000430532 0.0405927 0)
(-0.000520132 0.0436784 0)
(-0.000620045 0.0466852 0)
(-0.000730697 0.0496115 0)
(-0.000852506 0.0524561 0)
(-0.000985882 0.0552178 0)
(-0.00113122 0.0578957 0)
(-0.0012889 0.0604889 0)
(-0.0014593 0.0629967 0)
(-0.00164276 0.0654188 0)
(-0.00183962 0.067755 0)
(-0.00205018 0.0700052 0)
(-0.00227475 0.0721696 0)
(-0.00251359 0.0742487 0)
(-0.00276696 0.0762431 0)
(-0.00303509 0.0781536 0)
(-0.00331817 0.0799814 0)
(-0.00361639 0.0817279 0)
(-0.00392991 0.0833947 0)
(-0.00425887 0.0849834 0)
(-0.00460338 0.0864963 0)
(-0.00496353 0.0879355 0)
(-0.00533941 0.0893036 0)
(-0.00573107 0.0906032 0)
(-0.00613856 0.0918372 0)
(-0.00656191 0.0930087 0)
(-0.00700113 0.094121 0)
(-0.00745624 0.0951775 0)
(-0.00792725 0.0961818 0)
(-0.00841417 0.0971376 0)
(-0.008917 0.0980489 0)
(-0.00943576 0.0989196 0)
(-0.0099705 0.0997537 0)
(-0.0105213 0.100556 0)
(-0.0110881 0.10133 0)
(-0.0116711 0.10208 0)
(-0.0122705 0.102811 0)
(-0.0128863 0.103527 0)
(-0.0135189 0.104233 0)
(-0.0141685 0.104934 0)
(-0.0148354 0.105634 0)
(-0.0155201 0.106338 0)
(-0.0162231 0.107051 0)
(-0.0169449 0.107779 0)
(-0.0176863 0.108525 0)
(-0.018448 0.109297 0)
(-0.0192311 0.110099 0)
(-0.0200366 0.110939 0)
(-0.0208657 0.111822 0)
(-0.0217198 0.112757 0)
(-0.0226006 0.113751 0)
(-0.0235098 0.114815 0)
(-0.0244494 0.115958 0)
(-0.0254218 0.117195 0)
(-0.0264293 0.118538 0)
(-0.0274748 0.120006 0)
(-0.0285612 0.121618 0)
(-0.0296917 0.123398 0)
(-0.0308697 0.125373 0)
(-0.0320989 0.127574 0)
(-0.0333828 0.130038 0)
(-0.0347252 0.132806 0)
(-0.0361295 0.135924 0)
(-0.037599 0.13944 0)
(-0.0391363 0.143408 0)
(-0.0407435 0.147881 0)
(-0.0424215 0.152907 0)
(-0.04417 0.158532 0)
(-0.0459871 0.164787 0)
(-0.0478693 0.171685 0)
(-0.0498108 0.179216 0)
(-0.051804 0.187333 0)
(-0.0538393 0.195954 0)
(-0.0559049 0.204947 0)
(-0.0579875 0.214132 0)
(-0.0600727 0.223281 0)
(-0.0621452 0.232116 0)
(-0.06419 0.240327 0)
(-0.0661928 0.247576 0)
(-0.0681414 0.253522 0)
(-0.0700265 0.257841 0)
(-0.0718433 0.260247 0)
(-0.0735923 0.260518 0)
(-0.0752803 0.258511 0)
(-0.0769213 0.25418 0)
(-0.0785361 0.247577 0)
(-0.0801515 0.23885 0)
(-0.081799 0.228221 0)
(-0.0835114 0.215965 0)
(-6.28482e-07 0.00196819 0)
(-4.43379e-06 0.00581922 0)
(-1.35154e-05 0.00961433 0)
(-2.80138e-05 0.0133512 0)
(-4.81654e-05 0.0170277 0)
(-7.43969e-05 0.0206414 0)
(-0.000107165 0.0241901 0)
(-0.000146917 0.0276718 0)
(-0.000194096 0.0310842 0)
(-0.000249151 0.0344254 0)
(-0.000312529 0.0376933 0)
(-0.000384677 0.0408861 0)
(-0.000466041 0.0440021 0)
(-0.000557057 0.0470396 0)
(-0.000658158 0.049997 0)
(-0.000769768 0.0528731 0)
(-0.0008923 0.0556665 0)
(-0.00102615 0.0583762 0)
(-0.00117172 0.0610013 0)
(-0.00132936 0.0635411 0)
(-0.00149944 0.0659951 0)
(-0.00168229 0.0683629 0)
(-0.00187823 0.0706446 0)
(-0.00208754 0.0728401 0)
(-0.00231051 0.0749499 0)
(-0.00254738 0.0769745 0)
(-0.00279837 0.0789147 0)
(-0.00306368 0.0807717 0)
(-0.0033435 0.0825466 0)
(-0.00363796 0.084241 0)
(-0.0039472 0.0858567 0)
(-0.00427131 0.0873956 0)
(-0.00461038 0.0888601 0)
(-0.00496447 0.0902524 0)
(-0.0053336 0.0915754 0)
(-0.00571779 0.0928318 0)
(-0.00611706 0.0940248 0)
(-0.00653137 0.0951577 0)
(-0.00696071 0.0962338 0)
(-0.00740504 0.0972567 0)
(-0.00786433 0.0982303 0)
(-0.00833853 0.0991584 0)
(-0.0088276 0.100045 0)
(-0.00933152 0.100895 0)
(-0.00985026 0.101711 0)
(-0.0103838 0.102499 0)
(-0.0109322 0.103262 0)
(-0.0114955 0.104006 0)
(-0.0120738 0.104735 0)
(-0.0126671 0.105453 0)
(-0.0132757 0.106165 0)
(-0.0138998 0.106877 0)
(-0.0145396 0.107593 0)
(-0.0151956 0.108318 0)
(-0.0158681 0.109058 0)
(-0.0165577 0.109817 0)
(-0.017265 0.110602 0)
(-0.0179907 0.111418 0)
(-0.0187358 0.112273 0)
(-0.0195011 0.113172 0)
(-0.0202878 0.114124 0)
(-0.0210972 0.115138 0)
(-0.0219307 0.116223 0)
(-0.0227899 0.117389 0)
(-0.0236766 0.118651 0)
(-0.0245927 0.120021 0)
(-0.0255404 0.121519 0)
(-0.0265219 0.123164 0)
(-0.0275395 0.124979 0)
(-0.0285956 0.126991 0)
(-0.0296928 0.129233 0)
(-0.0308332 0.131739 0)
(-0.0320189 0.134552 0)
(-0.0332518 0.137715 0)
(-0.0345329 0.141278 0)
(-0.0358628 0.145292 0)
(-0.0372409 0.149809 0)
(-0.0386654 0.154876 0)
(-0.0401334 0.160537 0)
(-0.0416402 0.166821 0)
(-0.0431796 0.17374 0)
(-0.0447439 0.181281 0)
(-0.0463237 0.189398 0)
(-0.0479087 0.198005 0)
(-0.0494876 0.20697 0)
(-0.0510493 0.216115 0)
(-0.0525829 0.22521 0)
(-0.0540786 0.233981 0)
(-0.055529 0.242117 0)
(-0.0569289 0.249285 0)
(-0.0582769 0.255148 0)
(-0.0595754 0.259385 0)
(-0.0608315 0.261716 0)
(-0.0620572 0.261923 0)
(-0.0632692 0.259868 0)
(-0.0644892 0.25551 0)
(-0.0657425 0.248905 0)
(-0.0670567 0.240199 0)
(-0.0684601 0.229617 0)
(-0.0699788 0.217431 0)
(-5.21788e-07 0.00197666 0)
(-3.74708e-06 0.00584562 0)
(-1.15192e-05 0.00965979 0)
(-2.40212e-05 0.0134169 0)
(-4.15201e-05 0.0171145 0)
(-6.44452e-05 0.0207504 0)
(-9.3252e-05 0.0243224 0)
(-0.000128388 0.0278282 0)
(-0.0001703 0.0312656 0)
(-0.000219439 0.0346326 0)
(-0.000276254 0.0379271 0)
(-0.000341196 0.0411472 0)
(-0.00041471 0.044291 0)
(-0.000497239 0.047357 0)
(-0.000589216 0.0503433 0)
(-0.000691067 0.0532487 0)
(-0.000803209 0.0560717 0)
(-0.000926044 0.0588112 0)
(-0.00105996 0.0614664 0)
(-0.00120533 0.0640362 0)
(-0.00136251 0.0665203 0)
(-0.00153184 0.0689181 0)
(-0.00171362 0.0712295 0)
(-0.00190816 0.0734545 0)
(-0.00211571 0.0755934 0)
(-0.00233653 0.0776467 0)
(-0.00257083 0.0796152 0)
(-0.00281881 0.0814997 0)
(-0.00308063 0.0833016 0)
(-0.00335643 0.0850223 0)
(-0.00364632 0.0866635 0)
(-0.00395039 0.0882271 0)
(-0.00426869 0.0897154 0)
(-0.00460127 0.0911307 0)
(-0.00494814 0.0924757 0)
(-0.00530927 0.0937532 0)
(-0.00568465 0.0949663 0)
(-0.00607422 0.0961182 0)
(-0.00647792 0.0972125 0)
(-0.00689566 0.0982526 0)
(-0.00732737 0.0992424 0)
(-0.00777294 0.100186 0)
(-0.00823228 0.101087 0)
(-0.00870529 0.10195 0)
(-0.00919189 0.102779 0)
(-0.00969199 0.103579 0)
(-0.0102055 0.104353 0)
(-0.0107325 0.105108 0)
(-0.0112728 0.105847 0)
(-0.0118265 0.106575 0)
(-0.0123936 0.107297 0)
(-0.0129743 0.108018 0)
(-0.0135687 0.108742 0)
(-0.014177 0.109476 0)
(-0.0147994 0.110225 0)
(-0.0154364 0.110994 0)
(-0.0160883 0.111788 0)
(-0.0167558 0.112615 0)
(-0.0174393 0.11348 0)
(-0.0181396 0.114392 0)
(-0.0188576 0.115357 0)
(-0.0195942 0.116384 0)
(-0.0203505 0.117484 0)
(-0.0211276 0.118668 0)
(-0.0219269 0.119947 0)
(-0.0227497 0.121338 0)
(-0.0235976 0.122857 0)
(-0.024472 0.124525 0)
(-0.0253745 0.126365 0)
(-0.0263064 0.128404 0)
(-0.0272691 0.130673 0)
(-0.0282635 0.133208 0)
(-0.0292902 0.136049 0)
(-0.0303492 0.139241 0)
(-0.0314397 0.14283 0)
(-0.03256 0.146868 0)
(-0.0337073 0.151404 0)
(-0.0348773 0.156485 0)
(-0.0360643 0.162153 0)
(-0.0372612 0.168435 0)
(-0.0384595 0.175343 0)
(-0.0396492 0.182861 0)
(-0.0408198 0.190944 0)
(-0.0419602 0.199505 0)
(-0.0430599 0.208414 0)
(-0.0441095 0.217494 0)
(-0.0451018 0.226516 0)
(-0.0460325 0.235211 0)
(-0.0469011 0.243271 0)
(-0.0477113 0.250367 0)
(-0.048472 0.256165 0)
(-0.0491964 0.260351 0)
(-0.0499031 0.262647 0)
(-0.0506145 0.262838 0)
(-0.0513569 0.26079 0)
(-0.0521586 0.256463 0)
(-0.0530487 0.249912 0)
(-0.0540554 0.241282 0)
(-0.0552033 0.230795 0)
(-0.0565121 0.218717 0)
(-4.22549e-07 0.00198362 0)
(-3.10708e-06 0.0058676 0)
(-9.65702e-06 0.00969797 0)
(-2.02945e-05 0.0134724 0)
(-3.5314e-05 0.0171885 0)
(-5.51458e-05 0.020844 0)
(-8.02425e-05 0.0244366 0)
(-0.000111052 0.027964 0)
(-0.00014802 0.0314239 0)
(-0.000191599 0.0348143 0)
(-0.00024224 0.0381331 0)
(-0.000300391 0.0413782 0)
(-0.0003665 0.0445477 0)
(-0.000441008 0.0476399 0)
(-0.000524351 0.0506531 0)
(-0.000616954 0.0535857 0)
(-0.000719232 0.0564364 0)
(-0.000831588 0.0592039 0)
(-0.00095441 0.0618871 0)
(-0.00108807 0.0644853 0)
(-0.00123292 0.0669976 0)
(-0.00138929 0.0694236 0)
(-0.00155749 0.0717631 0)
(-0.00173782 0.0740159 0)
(-0.00193053 0.0761824 0)
(-0.00213586 0.0782629 0)
(-0.00235402 0.080258 0)
(-0.0025852 0.0821687 0)
(-0.00282955 0.0839961 0)
(-0.00308719 0.0857416 0)
(-0.00335822 0.0874069 0)
(-0.00364271 0.0889938 0)
(-0.00394069 0.0905045 0)
(-0.00425219 0.0919413 0)
(-0.00457717 0.0933069 0)
(-0.00491561 0.094604 0)
(-0.00526743 0.0958358 0)
(-0.00563256 0.0970054 0)
(-0.00601087 0.0981163 0)
(-0.00640226 0.099172 0)
(-0.00680657 0.100176 0)
(-0.00722367 0.101134 0)
(-0.00765339 0.102047 0)
(-0.00809557 0.102922 0)
(-0.00855005 0.103762 0)
(-0.00901667 0.104572 0)
(-0.00949528 0.105356 0)
(-0.00998575 0.106119 0)
(-0.010488 0.106866 0)
(-0.0110018 0.107601 0)
(-0.0115272 0.10833 0)
(-0.0120642 0.109057 0)
(-0.0126128 0.109788 0)
(-0.013173 0.110529 0)
(-0.0137449 0.111283 0)
(-0.0143287 0.112058 0)
(-0.0149246 0.112859 0)
(-0.015533 0.113692 0)
(-0.0161543 0.114564 0)
(-0.0167888 0.115483 0)
(-0.0174372 0.116456 0)
(-0.0181001 0.117492 0)
(-0.0187781 0.118602 0)
(-0.019472 0.119796 0)
(-0.0201827 0.121087 0)
(-0.020911 0.122491 0)
(-0.0216578 0.124024 0)
(-0.0224238 0.125706 0)
(-0.0232098 0.127561 0)
(-0.0240161 0.129615 0)
(-0.024843 0.1319 0)
(-0.0256901 0.13445 0)