/*--------------------------------*- C++ -*----------------------------------*\
| =========                 |                                                 |
| \\      /  F ield         | OpenFOAM: The Open Source CFD Toolbox           |
|  \\    /   O peration     | Version:  2412                                  |
|   \\  /    A nd           | Website:  www.openfoam.com                      |
|    \\/     M anipulation  |                                                 |
\*---------------------------------------------------------------------------*/
FoamFile
{
    version     2.0;
    format      ascii;
    arch        "LSB;label=32;scalar=64";
    class       volScalarField;
    location    "0.59";
    object      p;
}
// * * * * * * * * * * * * * * * * * * * * * * * * * * * * * * * * * * * * * //

dimensions      [0 2 -2 0 0 0 0];

internalField   nonuniform List<scalar> 
257400
(
0.277362
0.102914
-0.0579146
-0.189917
-0.290825
-0.362862
-0.41201
-0.442708
-0.462282
-0.474418
-0.481023
-0.484249
-0.484437
-0.483633
-0.480596
-0.477492
-0.473031
-0.468887
-0.464472
-0.459824
-0.455123
-0.45036
-0.446004
-0.441236
-0.436831
-0.432208
-0.427786
-0.423423
-0.418986
-0.414847
-0.410549
-0.406554
-0.402635
-0.39861
-0.394614
-0.390734
-0.38681
-0.383107
-0.37948
-0.375854
-0.372221
-0.368584
-0.365113
-0.361619
-0.358175
-0.354872
-0.351614
-0.348382
-0.345116
-0.341909
-0.338823
-0.335766
-0.33268
-0.329613
-0.326665
-0.323747
-0.320828
-0.317878
-0.315047
-0.312252
-0.309416
-0.306668
-0.303982
-0.301325
-0.298649
-0.295977
-0.293399
-0.290785
-0.288343
-0.285753
-0.283293
-0.280866
-0.278409
-0.276017
-0.273606
-0.271268
-0.268929
-0.26663
-0.26438
-0.262149
0.285917
0.158956
0.02504
-0.0970099
-0.202858
-0.288389
-0.353687
-0.399455
-0.430897
-0.451877
-0.464959
-0.472597
-0.476072
-0.477677
-0.476739
-0.475051
-0.47195
-0.468496
-0.464602
-0.460352
-0.45592
-0.451268
-0.447047
-0.442321
-0.438024
-0.433516
-0.429175
-0.4249
-0.420539
-0.416415
-0.412144
-0.408155
-0.404225
-0.400255
-0.396234
-0.392312
-0.388464
-0.384704
-0.381007
-0.377324
-0.373722
-0.370089
-0.366563
-0.36305
-0.359575
-0.35619
-0.352859
-0.349586
-0.346297
-0.34305
-0.339901
-0.336787
-0.333663
-0.330556
-0.327559
-0.324623
-0.321687
-0.318693
-0.315833
-0.313015
-0.310139
-0.307349
-0.304618
-0.301911
-0.299199
-0.296494
-0.29385
-0.291199
-0.288664
-0.286055
-0.28353
-0.281045
-0.278549
-0.276109
-0.273663
-0.27128
-0.268904
-0.266564
-0.264266
-0.261983
0.305144
0.203972
0.0863964
-0.0241141
-0.127952
-0.21915
-0.294555
-0.352212
-0.394466
-0.424337
-0.444445
-0.457729
-0.465471
-0.470068
-0.471362
-0.471251
-0.469348
-0.466769
-0.463604
-0.459952
-0.456023
-0.451749
-0.447695
-0.443325
-0.439064
-0.434591
-0.430226
-0.425925
-0.421551
-0.41746
-0.413251
-0.409236
-0.405246
-0.40121
-0.397208
-0.393377
-0.389446
-0.385661
-0.381951
-0.378297
-0.374619
-0.370944
-0.367405
-0.363862
-0.36035
-0.356948
-0.353595
-0.350298
-0.346983
-0.343702
-0.340531
-0.337438
-0.3343
-0.33115
-0.328132
-0.32513
-0.322156
-0.319153
-0.316231
-0.313367
-0.310471
-0.307639
-0.304865
-0.302127
-0.299391
-0.29666
-0.294001
-0.29132
-0.288775
-0.286138
-0.28359
-0.281086
-0.278565
-0.276104
-0.273632
-0.271226
-0.268825
-0.266457
-0.26413
-0.261805
0.317563
0.237297
0.147652
0.0439605
-0.052649
-0.143078
-0.224237
-0.291861
-0.345197
-0.38551
-0.414599
-0.435
-0.448308
-0.457151
-0.461737
-0.464064
-0.464035
-0.462827
-0.460687
-0.457811
-0.454494
-0.450667
-0.446961
-0.442845
-0.438858
-0.434693
-0.430539
-0.426409
-0.422017
-0.417977
-0.413873
-0.409844
-0.405851
-0.401821
-0.397913
-0.394133
-0.390189
-0.386401
-0.382693
-0.379044
-0.37535
-0.371673
-0.368129
-0.364575
-0.361041
-0.357613
-0.354225
-0.350902
-0.347572
-0.344277
-0.341107
-0.337942
-0.334779
-0.331619
-0.328538
-0.325514
-0.322524
-0.319497
-0.316553
-0.31367
-0.31075
-0.307892
-0.30509
-0.302327
-0.299567
-0.296808
-0.294126
-0.291412
-0.288844
-0.286179
-0.283604
-0.281076
-0.278528
-0.276044
-0.273547
-0.271117
-0.26869
-0.266295
-0.26394
-0.261577
0.321214
0.25582
0.181622
0.0941845
0.010567
-0.0731073
-0.15318
-0.225277
-0.286479
-0.336006
-0.374236
-0.402793
-0.422947
-0.437304
-0.446396
-0.45217
-0.454842
-0.455651
-0.455051
-0.453367
-0.451004
-0.447919
-0.444777
-0.44113
-0.437501
-0.433624
-0.429698
-0.425799
-0.421711
-0.417808
-0.413677
-0.40969
-0.405746
-0.401831
-0.39799
-0.394242
-0.390348
-0.386593
-0.382913
-0.37927
-0.375605
-0.371936
-0.368401
-0.364853
-0.361318
-0.357882
-0.354478
-0.351135
-0.347796
-0.344485
-0.341294
-0.338129
-0.334967
-0.331796
-0.328709
-0.325672
-0.32267
-0.319628
-0.316667
-0.313769
-0.310834
-0.307957
-0.305137
-0.302356
-0.299581
-0.296803
-0.294106
-0.291371
-0.288786
-0.286103
-0.283506
-0.280961
-0.278393
-0.275891
-0.273373
-0.270922
-0.268474
-0.266055
-0.263678
-0.261281
0.319222
0.265295
0.205899
0.14036
0.0596689
-0.0154188
-0.0893565
-0.160439
-0.224824
-0.28033
-0.325978
-0.3622
-0.389546
-0.410029
-0.424435
-0.434535
-0.44075
-0.444314
-0.445868
-0.44587
-0.444848
-0.442828
-0.440507
-0.437544
-0.434457
-0.431047
-0.427502
-0.423916
-0.420092
-0.416361
-0.412486
-0.408568
-0.404842
-0.401048
-0.397278
-0.393612
-0.389814
-0.386131
-0.38251
-0.378912
-0.375305
-0.371675
-0.368175
-0.364661
-0.361151
-0.357737
-0.354346
-0.350977
-0.347641
-0.344334
-0.34113
-0.337979
-0.334831
-0.331665
-0.328578
-0.325537
-0.322534
-0.319493
-0.316525
-0.313624
-0.310685
-0.307801
-0.304972
-0.302182
-0.299401
-0.296613
-0.293909
-0.291161
-0.288566
-0.285875
-0.283264
-0.280708
-0.278128
-0.275614
-0.273082
-0.270617
-0.268155
-0.265716
-0.263326
-0.260903
0.314174
0.268839
0.219056
0.163037
0.0984155
0.030432
-0.0360886
-0.102481
-0.165856
-0.223606
-0.27385
-0.315938
-0.349629
-0.376122
-0.396032
-0.410896
-0.421266
-0.428235
-0.432543
-0.434757
-0.435509
-0.434928
-0.433733
-0.431721
-0.429391
-0.426629
-0.423617
-0.420482
-0.417059
-0.413644
-0.410087
-0.406407
-0.402867
-0.399233
-0.395601
-0.392069
-0.38841
-0.384842
-0.381319
-0.377808
-0.374288
-0.370734
-0.367298
-0.363846
-0.360392
-0.357022
-0.35366
-0.350283
-0.346953
-0.343659
-0.340477
-0.337373
-0.334266
-0.33113
-0.328063
-0.325036
-0.322048
-0.319024
-0.316065
-0.313172
-0.310244
-0.307366
-0.304541
-0.301754
-0.298978
-0.296192
-0.293491
-0.290743
-0.288146
-0.285457
-0.282842
-0.280284
-0.277701
-0.275182
-0.272646
-0.270174
-0.267705
-0.265256
-0.262862
-0.260421
0.307472
0.268631
0.226423
0.179871
0.12748
0.0641569
0.00574051
-0.0540802
-0.113434
-0.170153
-0.221976
-0.267513
-0.305877
-0.337435
-0.362463
-0.38199
-0.39666
-0.407391
-0.4149
-0.419781
-0.422722
-0.42395
-0.424195
-0.423404
-0.42206
-0.420141
-0.417835
-0.415282
-0.412284
-0.409292
-0.406185
-0.402895
-0.399629
-0.396246
-0.392827
-0.389485
-0.386019
-0.382612
-0.379232
-0.37585
-0.372456
-0.369018
-0.365679
-0.362323
-0.35896
-0.355676
-0.352409
-0.349145
-0.345808
-0.342482
-0.339292
-0.336253
-0.333212
-0.33013
-0.327103
-0.32411
-0.321154
-0.318164
-0.315232
-0.312361
-0.30946
-0.306604
-0.303796
-0.301024
-0.298267
-0.295497
-0.292811
-0.290077
-0.287486
-0.284813
-0.282205
-0.279654
-0.277079
-0.274566
-0.272036
-0.269565
-0.267101
-0.26465
-0.262263
-0.259816
0.29998
0.266244
0.230027
0.190502
0.146795
0.0984427
0.0390271
-0.0151504
-0.069071
-0.122582
-0.173512
-0.220148
-0.261215
-0.296388
-0.325574
-0.349269
-0.367963
-0.382389
-0.393255
-0.40108
-0.406519
-0.409867
-0.411837
-0.412522
-0.412386
-0.411504
-0.410094
-0.408373
-0.406319
-0.403748
-0.40082
-0.397952
-0.395063
-0.392013
-0.388883
-0.385792
-0.382572
-0.379376
-0.376183
-0.372974
-0.369745
-0.366465
-0.363256
-0.360027
-0.356786
-0.353603
-0.350429
-0.347258
-0.344029
-0.340766
-0.337476
-0.33453
-0.331594
-0.328605
-0.325648
-0.322711
-0.319806
-0.316871
-0.313982
-0.311151
-0.308293
-0.305474
-0.3027
-0.299958
-0.297232
-0.294493
-0.291834
-0.289128
-0.286556
-0.283911
-0.281322
-0.278789
-0.276234
-0.273737
-0.271224
-0.268767
-0.266318
-0.263876
-0.261507
-0.259066
0.29218
0.262513
0.230989
0.196844
0.159128
0.116846
0.0689686
0.016609
-0.0327491
-0.0819739
-0.13029
-0.176134
-0.218075
-0.2553
-0.287403
-0.314404
-0.336585
-0.35437
-0.368392
-0.379169
-0.387242
-0.392911
-0.396826
-0.399194
-0.400462
-0.400775
-0.400344
-0.399366
-0.398199
-0.396214
-0.393943
-0.391635
-0.38918
-0.386534
-0.383769
-0.380988
-0.378066
-0.37513
-0.372169
-0.369174
-0.366148
-0.363063
-0.360018
-0.356949
-0.353858
-0.350806
-0.347754
-0.344704
-0.34161
-0.338506
-0.335412
-0.332261
-0.329389
-0.326532
-0.323677
-0.320819
-0.317985
-0.315123
-0.312296
-0.309519
-0.306721
-0.303956
-0.301229
-0.298531
-0.295852
-0.293157
-0.290538
-0.287874
-0.285332
-0.282728
-0.280171
-0.277668
-0.275144
-0.272675
-0.270192
-0.267758
-0.265336
-0.262916
-0.260574
-0.258153
0.284348
0.257971
0.230195
0.200332
0.167578
0.131321
0.0910771
0.0450294
-0.00297865
-0.0482809
-0.0930667
-0.136764
-0.178099
-0.215973
-0.249739
-0.279038
-0.303947
-0.324592
-0.341426
-0.354882
-0.365493
-0.373524
-0.379506
-0.383698
-0.386516
-0.388167
-0.389016
-0.389329
-0.388369
-0.387218
-0.385757
-0.384025
-0.382066
-0.379895
-0.377555
-0.375137
-0.372561
-0.369929
-0.367241
-0.364498
-0.36171
-0.358851
-0.356003
-0.353121
-0.350208
-0.347313
-0.344409
-0.341501
-0.338557
-0.335591
-0.332619
-0.32957
-0.3266
-0.32386
-0.321153
-0.318422
-0.31569
-0.312922
-0.310173
-0.307467
-0.304743
-0.302046
-0.299381
-0.29674
-0.294119
-0.291484
-0.288916
-0.286308
-0.283806
-0.281255
-0.278743
-0.27628
-0.2738
-0.271369
-0.268927
-0.266528
-0.264144
-0.261757
-0.259453
-0.257064
0.276644
0.252972
0.228258
0.201897
0.173205
0.141553
0.106514
0.0678548
0.0243504
-0.0203212
-0.0619354
-0.102659
-0.142233
-0.179587
-0.213893
-0.244503
-0.271321
-0.294199
-0.313401
-0.329218
-0.342066
-0.352295
-0.360328
-0.366408
-0.370909
-0.374187
-0.376241
-0.377003
-0.377216
-0.377064
-0.376347
-0.375248
-0.373868
-0.372226
-0.370357
-0.368349
-0.366161
-0.363872
-0.361493
-0.359035
-0.356514
-0.35391
-0.351285
-0.348615
-0.345903
-0.343187
-0.340452
-0.337706
-0.334929
-0.332135
-0.329358
-0.326575
-0.323713
-0.320769
-0.318105
-0.315535
-0.312944
-0.310292
-0.307639
-0.305015
-0.302378
-0.299762
-0.297171
-0.294599
-0.292048
-0.289483
-0.286976
-0.284435
-0.281985
-0.279496
-0.277039
-0.274627
-0.2722
-0.269817
-0.267427
-0.265073
-0.262737
-0.260393
-0.258137
-0.255792
0.269159
0.247741
0.225557
0.202067
0.176652
0.148706
0.117896
0.0839676
0.0472289
0.00657874
-0.0360824
-0.0740586
-0.11122
-0.147005
-0.180787
-0.211761
-0.239677
-0.264127
-0.285181
-0.302977
-0.317799
-0.329974
-0.339867
-0.347734
-0.353987
-0.358565
-0.36162
-0.363774
-0.36515
-0.365835
-0.365895
-0.365511
-0.364758
-0.363681
-0.362322
-0.360764
-0.358996
-0.357082
-0.355043
-0.352898
-0.350668
-0.348341
-0.345962
-0.343524
-0.341032
-0.338515
-0.335967
-0.333399
-0.3308
-0.328177
-0.325549
-0.3229
-0.32022
-0.317496
-0.314667
-0.312196
-0.309772
-0.307269
-0.304733
-0.302205
-0.299665
-0.297139
-0.294632
-0.292139
-0.289665
-0.28718
-0.284743
-0.282278
-0.279888
-0.27747
-0.275077
-0.272723
-0.270358
-0.268032
-0.265701
-0.2634
-0.261121
-0.258831
-0.256627
-0.254337
0.261942
0.242423
0.222353
0.201244
0.178534
0.153665
0.12633
0.0962367
0.0635684
0.028794
-0.00805888
-0.0489186
-0.085247
-0.118964
-0.151414
-0.18179
-0.209952
-0.235268
-0.257615
-0.27697
-0.293418
-0.307335
-0.318901
-0.328313
-0.33589
-0.34179
-0.346334
-0.349756
-0.352146
-0.353726
-0.354635
-0.354997
-0.3549
-0.354418
-0.353601
-0.352525
-0.351204
-0.349691
-0.348016
-0.346207
-0.344288
-0.342254
-0.340141
-0.337952
-0.335694
-0.333391
-0.331044
-0.328666
-0.326252
-0.323804
-0.321339
-0.318852
-0.316343
-0.313807
-0.311262
-0.308513
-0.306199
-0.30388
-0.301494
-0.299082
-0.29665
-0.294224
-0.291807
-0.2894
-0.287011
-0.284611
-0.282251
-0.279869
-0.277545
-0.275203
-0.272881
-0.270591
-0.268295
-0.266031
-0.263767
-0.261527
-0.259309
-0.25708
-0.254934
-0.252707
0.255015
0.237115
0.21883
0.199718
0.179271
0.156969
0.132522
0.105639
0.0763825
0.0449203
0.0118699
-0.0216831
-0.0577611
-0.0939917
-0.126432
-0.155712
-0.183417
-0.208825
-0.231825
-0.252328
-0.269781
-0.284476
-0.297411
-0.308419
-0.317312
-0.324599
-0.33045
-0.335004
-0.338441
-0.340976
-0.342746
-0.343869
-0.344453
-0.344592
-0.344339
-0.343767
-0.342912
-0.341821
-0.340531
-0.339075
-0.337484
-0.335757
-0.333923
-0.331995
-0.329984
-0.327907
-0.325772
-0.323594
-0.321373
-0.319109
-0.316815
-0.314495
-0.312152
-0.309784
-0.307408
-0.305004
-0.302371
-0.300156
-0.297943
-0.295683
-0.293382
-0.291064
-0.288744
-0.286429
-0.284129
-0.28182
-0.279541
-0.277245
-0.274994
-0.272731
-0.270484
-0.268264
-0.26604
-0.263843
-0.261649
-0.259474
-0.257323
-0.25516
-0.253075
-0.250917
0.248385
0.231876
0.215115
0.197697
0.179157
0.159015
0.136997
0.112815
0.0864731
0.0580341
0.0278374
-0.00369217
-0.035689
-0.0666213
-0.0979439
-0.129019
-0.157075
-0.182741
-0.205958
-0.226707
-0.245724
-0.262534
-0.276648
-0.288636
-0.298728
-0.30719
-0.314156
-0.319798
-0.324279
-0.327759
-0.330384
-0.332278
-0.33356
-0.334334
-0.334659
-0.334609
-0.334235
-0.333581
-0.33269
-0.331602
-0.33035
-0.328941
-0.327398
-0.325742
-0.323986
-0.322145
-0.320231
-0.318261
-0.316238
-0.314164
-0.312047
-0.309896
-0.307717
-0.305509
-0.303288
-0.301047
-0.298806
-0.296379
-0.294164
-0.292059
-0.289909
-0.287712
-0.285493
-0.283273
-0.281065
-0.27885
-0.276655
-0.274447
-0.272272
-0.270091
-0.267922
-0.265774
-0.263625
-0.261498
-0.259377
-0.25727
-0.255187
-0.253093
-0.251071
-0.248984
0.242049
0.226748
0.211297
0.195327
0.17841
0.160103
0.140146
0.118263
0.094423
0.0686366
0.0410955
0.0122125
-0.0175321
-0.0476062
-0.0775197
-0.106171
-0.13343
-0.159028
-0.182777
-0.204486
-0.223971
-0.241143
-0.256069
-0.269087
-0.280268
-0.289773
-0.297754
-0.304396
-0.309848
-0.31423
-0.317697
-0.320362
-0.322345
-0.323759
-0.32467
-0.325151
-0.325267
-0.325061
-0.32458
-0.32387
-0.322967
-0.321884
-0.320641
-0.319265
-0.317771
-0.316173
-0.314487
-0.312731
-0.310912
-0.309031
-0.307095
-0.305115
-0.303102
-0.301054
-0.29898
-0.296877
-0.294733
-0.292542
-0.290303
-0.28827
-0.286271
-0.284209
-0.2821
-0.279979
-0.277864
-0.275742
-0.273633
-0.271514
-0.269418
-0.26732
-0.26523
-0.263155
-0.261082
-0.259027
-0.256979
-0.254942
-0.252928
-0.250904
-0.248945
-0.246932
0.236001
0.221755
0.20744
0.192718
0.177193
0.160456
0.142262
0.12235
0.100662
0.0771883
0.0520493
0.0255306
-0.00209278
-0.030186
-0.0582568
-0.0857824
-0.112451
-0.137669
-0.161225
-0.182934
-0.20266
-0.220404
-0.236148
-0.250041
-0.262116
-0.272541
-0.28145
-0.288998
-0.295325
-0.300552
-0.304824
-0.308239
-0.310914
-0.312965
-0.314462
-0.315479
-0.31609
-0.316337
-0.316272
-0.315947
-0.3154
-0.314649
-0.313712
-0.312622
-0.311395
-0.310046
-0.308594
-0.307056
-0.305445
-0.303759
-0.302008
-0.300203
-0.298357
-0.296469
-0.294543
-0.292583
-0.290595
-0.288579
-0.286534
-0.284351
-0.282477
-0.280569
-0.278591
-0.276579
-0.27456
-0.272532
-0.270511
-0.26848
-0.266465
-0.264449
-0.262438
-0.260439
-0.258442
-0.256459
-0.254483
-0.252517
-0.250571
-0.248619
-0.246722
-0.24478
0.230229
0.216911
0.203589
0.18995
0.175628
0.160244
0.143569
0.125354
0.105528
0.0840626
0.0610297
0.0366391
0.0111278
-0.0150032
-0.0414516
-0.0677035
-0.0933463
-0.117875
-0.141062
-0.162702
-0.182629
-0.200784
-0.21708
-0.231623
-0.244436
-0.255655
-0.26538
-0.273741
-0.280868
-0.28687
-0.291891
-0.29602
-0.299364
-0.302039
-0.304114
-0.305665
-0.306768
-0.30747
-0.307826
-0.307889
-0.307702
-0.307285
-0.30666
-0.305859
-0.304904
-0.303808
-0.302592
-0.301278
-0.299876
-0.298389
-0.296825
-0.295197
-0.293519
-0.291793
-0.29002
-0.288208
-0.286368
-0.284503
-0.28262
-0.280725
-0.278631
-0.276811
-0.274982
-0.273097
-0.271182
-0.269249
-0.267316
-0.265375
-0.263441
-0.261507
-0.259576
-0.257652
-0.25573
-0.253819
-0.251916
-0.250019
-0.248141
-0.246259
-0.244423
-0.242552
0.22472
0.212223
0.199775
0.187083
0.173808
0.159598
0.144238
0.127495
0.109287
0.0895732
0.0683974
0.0459178
0.0223085
-0.00204646
-0.0268835
-0.0517212
-0.0762265
-0.0999533
-0.122634
-0.144033
-0.163946
-0.182278
-0.198923
-0.213956
-0.227362
-0.23924
-0.249664
-0.258741
-0.26659
-0.273302
-0.279013
-0.283804
-0.287783
-0.291058
-0.293696
-0.29577
-0.297361
-0.298515
-0.299289
-0.299741
-0.299914
-0.299834
-0.299522
-0.299013
-0.298332
-0.297492
-0.296516
-0.295426
-0.294237
-0.292951
-0.291576
-0.290127
-0.288619
-0.287054
-0.285436
-0.283771
-0.282073
-0.280344
-0.278587
-0.276796
-0.274973
-0.273047
-0.27131
-0.269554
-0.267751
-0.265917
-0.264073
-0.26222
-0.260369
-0.258516
-0.256664
-0.254815
-0.252968
-0.251129
-0.249297
-0.247469
-0.245658
-0.243844
-0.242068
-0.240265
0.219461
0.207696
0.19602
0.184161
0.171802
0.158617
0.144404
0.128943
0.11215
0.0939715
0.0744337
0.0536542
0.0317576
0.00906056
-0.0142177
-0.0376718
-0.0610183
-0.0838432
-0.10587
-0.126857
-0.146582
-0.164929
-0.181768
-0.197139
-0.210991
-0.223396
-0.234404
-0.244099
-0.252584
-0.259935
-0.266277
-0.271683
-0.276252
-0.280093
-0.28327
-0.285852
-0.287919
-0.289517
-0.290704
-0.291542
-0.292074
-0.29233
-0.292331
-0.292115
-0.291708
-0.291125
-0.29039
-0.289528
-0.288552
-0.287468
-0.286283
-0.285014
-0.283677
-0.282275
-0.280811
-0.279293
-0.277734
-0.276139
-0.274505
-0.272836
-0.271126
-0.269383
-0.267636
-0.265979
-0.264288
-0.262554
-0.260801
-0.259036
-0.257266
-0.255495
-0.253721
-0.251947
-0.250174
-0.248406
-0.246643
-0.244884
-0.243138
-0.241391
-0.239674
-0.237936
0.214438
0.203329
0.19234
0.181217
0.169665
0.15738
0.144172
0.129835
0.114282
0.0974562
0.0793658
0.0601018
0.0397541
0.0185841
-0.00323569
-0.0253603
-0.0475394
-0.0694007
-0.090681
-0.11114
-0.130549
-0.148773
-0.165663
-0.181226
-0.195389
-0.208198
-0.219679
-0.229894
-0.238929
-0.246846
-0.253756
-0.259724
-0.264841
-0.269211
-0.272895
-0.275961
-0.278487
-0.280517
-0.28211
-0.283326
-0.284214
-0.284802
-0.285114
-0.28519
-0.285057
-0.28473
-0.284237
-0.283601
-0.28284
-0.281958
-0.280964
-0.279876
-0.278711
-0.277472
-0.276162
-0.274791
-0.273372
-0.27191
-0.270404
-0.268858
-0.267275
-0.265647
-0.263953
-0.262387
-0.260801
-0.259172
-0.257512
-0.255834
-0.254146
-0.252456
-0.25076
-0.249061
-0.247361
-0.245663
-0.24397
-0.242277
-0.240596
-0.238913
-0.237254
-0.235579
0.209638
0.199118
0.188744
0.178276
0.167439
0.155948
0.143626
0.130278
0.115819
0.100187
0.0833811
0.0654697
0.0465176
0.0267408
0.00627561
-0.0145821
-0.0356157
-0.0564958
-0.0769767
-0.0968268
-0.115817
-0.133803
-0.150618
-0.166249
-0.180603
-0.193701
-0.20555
-0.21619
-0.225689
-0.234097
-0.241511
-0.247986
-0.253605
-0.258465
-0.262625
-0.266147
-0.269109
-0.271554
-0.27354
-0.275126
-0.276362
-0.277277
-0.277895
-0.27826
-0.278398
-0.278327
-0.278074
-0.277665
-0.277117
-0.276437
-0.275634
-0.274727
-0.273733
-0.272657
-0.271502
-0.270278
-0.268999
-0.267672
-0.266293
-0.26487
-0.263412
-0.261923
-0.26041
-0.258805
-0.257301
-0.25578
-0.254216
-0.252625
-0.25102
-0.249409
-0.247791
-0.246166
-0.244539
-0.242911
-0.241285
-0.239659
-0.23804
-0.236421
-0.234819
-0.233205
0.205048
0.195061
0.185238
0.175356
0.165155
0.154368
0.14283
0.130358
0.116867
0.102295
0.0866318
0.0699292
0.0522337
0.0337255
0.0145122
-0.00515315
-0.0250847
-0.0449914
-0.0646476
-0.0838352
-0.10233
-0.119986
-0.136626
-0.152219
-0.166656
-0.17994
-0.192059
-0.203033
-0.212916
-0.221741
-0.229595
-0.236521
-0.242593
-0.247903
-0.252503
-0.256452
-0.259825
-0.262665
-0.265026
-0.26697
-0.268543
-0.269778
-0.270697
-0.271346
-0.271752
-0.271933
-0.271918
-0.271734
-0.271398
-0.270919
-0.270306
-0.26958
-0.268757
-0.267843
-0.266841
-0.265764
-0.264626
-0.263432
-0.262181
-0.260881
-0.259542
-0.258163
-0.256732
-0.255243
-0.253813
-0.252387
-0.250919
-0.249417
-0.247894
-0.246363
-0.244822
-0.243271
-0.241716
-0.240157
-0.238598
-0.237037
-0.235481
-0.233924
-0.232378
-0.230822
0.200656
0.191152
0.181827
0.172471
0.162838
0.152679
0.141839
0.130145
0.117515
0.103886
0.0892426
0.0736231
0.05706
0.0397054
0.0216438
0.00309173
-0.0157916
-0.0347496
-0.053577
-0.0720721
-0.0900202
-0.107277
-0.12366
-0.139127
-0.153556
-0.166934
-0.179233
-0.190458
-0.200646
-0.209819
-0.218049
-0.225369
-0.231846
-0.237562
-0.242566
-0.246911
-0.25067
-0.253881
-0.256599
-0.258885
-0.260784
-0.262327
-0.26354
-0.264466
-0.265134
-0.265563
-0.265783
-0.265821
-0.265695
-0.265415
-0.264991
-0.264443
-0.26379
-0.263038
-0.26219
-0.261259
-0.26026
-0.259198
-0.258075
-0.256896
-0.255673
-0.254404
-0.253093
-0.251748
-0.250341
-0.248998
-0.247627
-0.246216
-0.244776
-0.243323
-0.241858
-0.24038
-0.238897
-0.237407
-0.235914
-0.234418
-0.232923
-0.231426
-0.229936
-0.228438
0.196451
0.187386
0.178513
0.16963
0.160508
0.150912
0.140695
0.129695
0.117832
0.105047
0.0913165
0.0766701
0.0611287
0.0448228
0.0278179
0.0103002
-0.00759424
-0.0256393
-0.0436499
-0.0614413
-0.0788106
-0.0956182
-0.111683
-0.12695
-0.141294
-0.154686
-0.167086
-0.178486
-0.188907
-0.19836
-0.206905
-0.214565
-0.221397
-0.227477
-0.232846
-0.237555
-0.241671
-0.245231
-0.248286
-0.250896
-0.253105
-0.254946
-0.256442
-0.257637
-0.258561
-0.259233
-0.259683
-0.259939
-0.26002
-0.259936
-0.259698
-0.259327
-0.258842
-0.25825
-0.257555
-0.256769
-0.255908
-0.254979
-0.253981
-0.252922
-0.251815
-0.250659
-0.249457
-0.24821
-0.246917
-0.245626
-0.244343
-0.243024
-0.241668
-0.240294
-0.238904
-0.2375
-0.236086
-0.234665
-0.233238
-0.231805
-0.230371
-0.228934
-0.2275
-0.226056
0.192421
0.183758
0.175295
0.166842
0.158179
0.149089
0.139431
0.129053
0.117879
0.105849
0.0929386
0.0791687
0.064551
0.0491985
0.0331623
0.0166025
-0.000364473
-0.0175394
-0.034756
-0.0518462
-0.0686205
-0.084946
-0.100644
-0.115656
-0.12985
-0.143189
-0.155621
-0.167126
-0.177714
-0.187386
-0.196187
-0.204134
-0.211274
-0.217674
-0.223372
-0.228412
-0.232856
-0.236739
-0.24011
-0.243025
-0.245529
-0.247653
-0.249421
-0.250876
-0.252048
-0.252956
-0.25363
-0.254099
-0.254383
-0.254491
-0.254437
-0.254241
-0.253922
-0.253488
-0.252943
-0.252301
-0.251577
-0.250779
-0.249906
-0.248967
-0.247974
-0.246928
-0.245831
-0.24469
-0.243509
-0.242273
-0.241075
-0.239845
-0.238573
-0.237278
-0.235963
-0.234631
-0.233289
-0.231935
-0.230573
-0.229203
-0.227829
-0.226451
-0.225071
-0.223682
0.188556
0.180262
0.172173
0.164109
0.155864
0.147229
0.138075
0.128257
0.117702
0.106351
0.0941798
0.0812014
0.0674206
0.0529359
0.0377871
0.0221126
0.00601193
-0.0103391
-0.0267915
-0.0431933
-0.0593683
-0.075192
-0.0904914
-0.105204
-0.119197
-0.132425
-0.14483
-0.15638
-0.167076
-0.176908
-0.185913
-0.194096
-0.201498
-0.208177
-0.214166
-0.219503
-0.224246
-0.228426
-0.232091
-0.235292
-0.238073
-0.240466
-0.242493
-0.244197
-0.245607
-0.246744
-0.247636
-0.248312
-0.248794
-0.249091
-0.249216
-0.249192
-0.249036
-0.248758
-0.248361
-0.247861
-0.247272
-0.246604
-0.245854
-0.245034
-0.244154
-0.243216
-0.242224
-0.241185
-0.240104
-0.238981
-0.237831
-0.236684
-0.235497
-0.23428
-0.233039
-0.231779
-0.230506
-0.229219
-0.227922
-0.226614
-0.2253
-0.22398
-0.222655
-0.221319
0.184847
0.176892
0.169146
0.161438
0.15357
0.145349
0.13665
0.127338
0.11734
0.106603
0.0950994
0.0828375
0.0698166
0.0561226
0.041787
0.0269298
0.0116362
-0.00393866
-0.0196611
-0.0353941
-0.0509749
-0.0662878
-0.0811665
-0.0955473
-0.109299
-0.12237
-0.134697
-0.14624
-0.156991
-0.166932
-0.17609
-0.184464
-0.192084
-0.199002
-0.205245
-0.210846
-0.215859
-0.220311
-0.224245
-0.227713
-0.230754
-0.2334
-0.235673
-0.237614
-0.239253
-0.240608
-0.241711
-0.242589
-0.243262
-0.243743
-0.244044
-0.244187
-0.244191
-0.244066
-0.243815
-0.243455
-0.243
-0.242458
-0.241831
-0.241127
-0.24036
-0.239529
-0.23864
-0.2377
-0.236716
-0.235684
-0.234604
-0.233547
-0.232442
-0.231301
-0.230134
-0.228945
-0.227741
-0.22652
-0.225287
-0.224041
-0.222786
-0.221523
-0.220252
-0.218968
0.181285
0.173643
0.166211
0.158828
0.151306
0.14346
0.135174
0.126319
0.116828
0.106646
0.0957468
0.0841351
0.0718057
0.0588336
0.0452437
0.0311407
0.0165976
0.00175158
-0.0132774
-0.0283661
-0.0433644
-0.0581658
-0.0726117
-0.0866387
-0.100118
-0.112995
-0.125203
-0.136694
-0.147454
-0.157458
-0.166724
-0.175244
-0.183041
-0.19016
-0.196622
-0.202456
-0.20771
-0.212407
-0.216588
-0.220301
-0.223585
-0.226468
-0.228973
-0.231139
-0.232995
-0.234561
-0.235866
-0.236937
-0.237797
-0.238456
-0.238928
-0.239234
-0.239395
-0.239419
-0.239311
-0.239088
-0.238764
-0.238348
-0.237841
-0.237252
-0.236595
-0.23587
-0.235082
-0.23424
-0.23335
-0.232405
-0.23139
-0.230428
-0.229403
-0.228341
-0.22725
-0.226131
-0.224995
-0.223839
-0.22267
-0.221485
-0.220288
-0.219082
-0.217864
-0.216633
0.177862
0.170509
0.163367
0.156282
0.149075
0.141572
0.133662
0.125223
0.116191
0.106513
0.0961637
0.0851436
0.0734448
0.0611329
0.0482274
0.0348203
0.0209745
0.00681126
-0.00756153
-0.0220332
-0.0364657
-0.0507611
-0.0647693
-0.0784284
-0.0916133
-0.104267
-0.116321
-0.127722
-0.138452
-0.148478
-0.157811
-0.166438
-0.174375
-0.181659
-0.188307
-0.194343
-0.199809
-0.204727
-0.209132
-0.21307
-0.216578
-0.219682
-0.222404
-0.224782
-0.226845
-0.22861
-0.230109
-0.231366
-0.232405
-0.233236
-0.233874
-0.234339
-0.234652
-0.234821
-0.234854
-0.234765
-0.234569
-0.234276
-0.233887
-0.233411
-0.232862
-0.232242
-0.231554
-0.230809
-0.230014
-0.229177
-0.228307
-0.227335
-0.226383
-0.225404
-0.224387
-0.223339
-0.22227
-0.221179
-0.220072
-0.218947
-0.217809
-0.216658
-0.215494
-0.214314
0.174569
0.167484
0.160611
0.1538
0.146882
0.139693
0.132126
0.124066
0.115452
0.106234
0.096385
0.0859046
0.074782
0.063075
0.0507985
0.0380341
0.0248357
0.0113111
-0.00244269
-0.0163262
-0.0302126
-0.0440123
-0.0575837
-0.0708672
-0.0837421
-0.0961507
-0.108023
-0.119304
-0.129969
-0.139982
-0.149347
-0.158045
-0.166087
-0.173503
-0.180306
-0.186514
-0.192166
-0.197279
-0.201886
-0.206029
-0.209742
-0.213051
-0.215976
-0.218553
-0.22081
-0.222765
-0.224447
-0.225883
-0.227094
-0.228091
-0.228888
-0.229507
-0.229967
-0.230279
-0.230448
-0.230489
-0.230419
-0.230246
-0.229973
-0.229608
-0.229166
-0.228648
-0.228059
-0.227409
-0.226707
-0.225956
-0.225144
-0.224266
-0.223396
-0.222493
-0.221549
-0.22057
-0.219567
-0.218541
-0.217496
-0.216431
-0.215349
-0.214254
-0.213142
-0.212013
0.171401
0.164565
0.157939
0.151381
0.14473
0.137828
0.130575
0.122863
0.11463
0.105832
0.0964405
0.0864536
0.0758586
0.064707
0.0530094
0.0408387
0.0282415
0.0153137
0.00214264
-0.0111822
-0.0245443
-0.0378619
-0.0510019
-0.0639073
-0.0764626
-0.0886101
-0.10028
-0.111415
-0.121987
-0.131956
-0.141322
-0.150059
-0.158174
-0.165692
-0.172621
-0.178974
-0.184786
-0.19007
-0.194857
-0.199185
-0.203085
-0.206583
-0.209695
-0.212458
-0.214898
-0.217032
-0.218889
-0.220495
-0.221869
-0.223026
-0.223976
-0.224744
-0.225347
-0.225796
-0.226097
-0.226266
-0.226318
-0.226263
-0.226102
-0.225847
-0.225509
-0.225091
-0.224599
-0.224042
-0.223428
-0.222759
-0.222032
-0.221255
-0.220443
-0.219609
-0.218737
-0.217827
-0.216889
-0.215926
-0.214942
-0.213936
-0.21291
-0.21187
-0.21081
-0.209732
0.168349
0.161745
0.15535
0.149026
0.14262
0.135983
0.129019
0.121624
0.113742
0.105328
0.0963553
0.0868206
0.07671
0.0660689
0.0549051
0.0432834
0.0312447
0.0188743
0.00625112
-0.00654438
-0.019405
-0.0322565
-0.0449737
-0.0575029
-0.0697336
-0.0816091
-0.0930605
-0.104029
-0.114485
-0.124384
-0.133722
-0.142472
-0.150632
-0.158224
-0.165252
-0.171724
-0.177672
-0.183105
-0.18805
-0.192544
-0.196614
-0.200283
-0.203569
-0.206505
-0.209116
-0.211418
-0.21344
-0.215206
-0.216737
-0.218045
-0.219144
-0.220054
-0.220795
-0.221377
-0.221806
-0.222099
-0.222269
-0.222329
-0.222279
-0.222129
-0.221893
-0.221574
-0.221176
-0.22071
-0.220183
-0.219599
-0.218958
-0.218267
-0.217518
-0.216753
-0.215952
-0.215109
-0.214236
-0.213336
-0.212412
-0.211463
-0.210494
-0.209507
-0.208499
-0.20747
0.165408
0.159021
0.152839
0.146733
0.140554
0.134161
0.127463
0.12036
0.1128
0.104738
0.0961507
0.0870315
0.0773662
0.0671956
0.0565246
0.0454113
0.0338916
0.0220418
0.0099332
-0.00236166
-0.0147442
-0.0271469
-0.0394524
-0.0516102
-0.0635152
-0.075112
-0.0863334
-0.0971203
-0.10744
-0.117248
-0.126536
-0.135272
-0.143452
-0.151093
-0.158195
-0.164763
-0.170824
-0.176385
-0.181469
-0.186109
-0.190332
-0.194158
-0.197602
-0.200698
-0.203467
-0.205927
-0.208105
-0.210023
-0.211702
-0.213155
-0.214395
-0.215441
-0.216314
-0.217024
-0.217578
-0.21799
-0.218276
-0.218447
-0.218504
-0.218458
-0.218322
-0.218098
-0.217793
-0.217416
-0.216975
-0.216474
-0.215913
-0.215296
-0.214624
-0.213931
-0.213196
-0.212419
-0.21161
-0.210771
-0.209906
-0.209015
-0.208101
-0.207167
-0.20621
-0.20523
0.162572
0.156388
0.150406
0.144501
0.138533
0.132366
0.125912
0.119079
0.111815
0.104079
0.0958449
0.0871083
0.0778535
0.0681171
0.0579019
0.0472598
0.0362228
0.0248593
0.0132338
0.00141178
-0.010516
-0.0224881
-0.0343947
-0.0461884
-0.0577695
-0.0690845
-0.0800679
-0.0906609
-0.100829
-0.110528
-0.119745
-0.128447
-0.136626
-0.144293
-0.151447
-0.158089
-0.164242
-0.16991
-0.175114
-0.179883
-0.184242
-0.18821
-0.191799
-0.195041
-0.197957
-0.200564
-0.202887
-0.204948
-0.206768
-0.208359
-0.209732
-0.21091
-0.21191
-0.212743
-0.213416
-0.213944
-0.214342
-0.21462
-0.214781
-0.214836
-0.214797
-0.214667
-0.214452
-0.214162
-0.213805
-0.213384
-0.212901
-0.212359
-0.211762
-0.211139
-0.21047
-0.209758
-0.209012
-0.208233
-0.207426
-0.206591
-0.205731
-0.204849
-0.203943
-0.203012
0.159836
0.153841
0.148046
0.142329
0.136557
0.130598
0.124372
0.117788
0.110797
0.103361
0.0954536
0.08707
0.0781942
0.0688592
0.0590661
0.0488617
0.038274
0.0273648
0.0161928
0.00481702
-0.00667884
-0.018239
-0.0297606
-0.0411991
-0.0524607
-0.0634933
-0.074234
-0.0846245
-0.09463
-0.104205
-0.113335
-0.121984
-0.130141
-0.137816
-0.145001
-0.151697
-0.157923
-0.16368
-0.168986
-0.173868
-0.178347
-0.18244
-0.186161
-0.189537
-0.192589
-0.195332
-0.19779
-0.199986
-0.201938
-0.203659
-0.20516
-0.206462
-0.207584
-0.208535
-0.209322
-0.209961
-0.210467
-0.21085
-0.211113
-0.211264
-0.21132
-0.211281
-0.211154
-0.210949
-0.210674
-0.210333
-0.209926
-0.209461
-0.208935
-0.208377
-0.207774
-0.207126