# Probe 0 (0.5 0.5 0.05)
# Time        0            
60.001        -0.0310573   
60.002        -0.0310577   
60.003        -0.0310575   
60.004        -0.0310574   
60.005        -0.0310572   
60.006        -0.0310569   
60.007        -0.0310568   
60.008        -0.0310566   
60.009        -0.0310565   
60.01         -0.0310564   
60.011        -0.0310564   
60.012        -0.0310563   
60.013        -0.0310563   
60.014        -0.0310562   
60.015        -0.0310561   
60.016        -0.031056    
60.017        -0.0310559   
60.018        -0.0310558   
60.019        -0.0310557   
60.02         -0.0310556   
60.021        -0.0310555   
60.022        -0.0310554   
60.023        -0.0310554   
60.024        -0.0310553   
60.025        -0.0310552   
60.026        -0.0310551   
60.027        -0.031055    
60.028        -0.0310549   
60.029        -0.0310548   
60.03         -0.0310547   
60.031        -0.0310546   
60.032        -0.0310545   
60.033        -0.0310544   
60.034        -0.0310544   
60.035        -0.0310543   
60.036        -0.0310542   
60.037        -0.0310541   
60.038        -0.031054    
60.039        -0.0310539   
60.04         -0.0310538   
60.041        -0.0310537   
60.042        -0.0310536   
60.043        -0.0310535   
60.044        -0.0310534   
60.045        -0.0310533   
60.046        -0.0310532   
60.047        -0.0310531   
60.048        -0.031053    
60.049        -0.0310529   
60.05         -0.0310528   
60.051        -0.0310528   
60.052        -0.0310527   
60.053        -0.0310526   
60.054        -0.0310525   
60.055        -0.0310524   
60.056        -0.0310523   
60.057        -0.0310522   
60.058        -0.0310521   
60.059        -0.031052    
60.06         -0.0310519   
60.061        -0.0310518   
60.062        -0.0310517   
60.063        -0.0310516   
60.064        -0.0310515   
60.065        -0.0310514   
60.066        -0.0310513   
60.067        -0.0310512   
60.068        -0.0310511   
60.069        -0.031051    
60.07         -0.0310509   
60.071        -0.0310508   
60.072        -0.0310507   
60.073        -0.0310506   
60.074        -0.0310505   
60.075        -0.0310504   
60.076        -0.0310503   
60.077        -0.0310502   
60.078        -0.0310501   
60.079        -0.03105     
60.08         -0.0310499   
60.081        -0.0310498   
60.082        -0.0310497   
60.083        -0.0310496   
60.084        -0.0310495   
60.085        -0.0310494   
60.086        -0.0310493   
60.087        -0.0310492   
60.088        -0.0310491   
60.089        -0.031049    
60.09         -0.0310489   
60.091        -0.0310488   
60.092        -0.0310487   
60.093        -0.0310486   
60.094        -0.0310485   
60.095        -0.0310484   
60.096        -0.0310483   
60.097        -0.0310482   
60.098        -0.0310481   
60.099        -0.031048    
60.1          -0.0310479   
60.101        -0.0310478   
60.102        -0.0310477   
60.103        -0.0310476   
60.104        -0.0310475   
60.105        -0.0310474   
60.106        -0.0310473   
60.107        -0.0310472   
60.108        -0.0310471   
60.109        -0.031047    
60.11         -0.0310469   
60.111        -0.0310468   
60.112        -0.0310467   
60.113        -0.0310466   
60.114        -0.0310465   
60.115        -0.0310464   
60.116        -0.0310463   
60.117        -0.0310461   
60.118        -0.031046    
60.119        -0.0310459   
60.12         -0.0310458   
60.121        -0.0310457   
60.122        -0.0310456   
60.123        -0.0310455   
60.124        -0.0310454   
60.125        -0.0310453   
60.126        -0.0310452   
60.127        -0.0310451   
60.128        -0.031045    
60.129        -0.0310449   
60.13         -0.0310448   
60.131        -0.0310447   
60.132        -0.0310446   
60.133        -0.0310444   
60.134        -0.0310443   
60.135        -0.0310442   
60.136        -0.0310441   
60.137        -0.031044    
60.138        -0.0310439   
60.139        -0.0310438   
60.14         -0.0310437   
60.141        -0.0310436   
60.142        -0.0310435   
60.143        -0.0310434   
60.144        -0.0310433   
60.145        -0.0310432   
60.146        -0.031043    
60.147        -0.0310429   
60.148        -0.0310428   
60.149        -0.0310427   
60.15         -0.0310426   
60.151        -0.0310425   
60.152        -0.0310424   
60.153        -0.0310423   
60.154        -0.0310422   
60.155        -0.031042    
60.156        -0.0310419   
60.157        -0.0310418   
60.158        -0.0310417   
60.159        -0.0310416   
60.16         -0.0310415   
60.161        -0.0310414   
60.162        -0.0310413   
60.163        -0.0310412   
60.164        -0.031041    
60.165        -0.0310409   
60.166        -0.0310408   
60.167        -0.0310407   
60.168        -0.0310406   
60.169        -0.0310405   
60.17         -0.0310404   
60.171        -0.0310403   
60.172        -0.0310401   
60.173        -0.03104     
60.174        -0.0310399   
60.175        -0.0310398   
60.176        -0.0310397   
60.177        -0.0310396   
60.178        -0.0310395   
60.179        -0.0310394   
60.18         -0.0310392   
60.181        -0.0310391   
60.182        -0.031039    
60.183        -0.0310389   
60.184        -0.0310388   
60.185        -0.0310387   
60.186        -0.0310385   
60.187        -0.0310384   
60.188        -0.0310383   
60.189        -0.0310382   
60.19         -0.0310381   
60.191        -0.031038    
60.192        -0.0310379   
60.193        -0.0310377   
60.194        -0.0310376   
60.195        -0.0310375   
60.196        -0.0310374   
60.197        -0.0310373   
60.198        -0.0310372   
60.199        -0.031037    
60.2          -0.0310369   
60.201        -0.0310368   
60.202        -0.0310367   
60.203        -0.0310366   
60.204        -0.0310365   
60.205        -0.0310363   
60.206        -0.0310362   
60.207        -0.0310361   
60.208        -0.031036    
60.209        -0.0310359   
60.21         -0.0310358   
60.211        -0.0310356   
60.212        -0.0310355   
60.213        -0.0310354   
60.214        -0.0310353   
60.215        -0.0310351   
60.216        -0.031035    
60.217        -0.0310349   
60.218        -0.0310348   
60.219        -0.0310347   
60.22         -0.0310346   
60.221        -0.0310345   
60.222        -0.0310343   
60.223        -0.0310342   
60.224        -0.0310341   
60.225        -0.031034    
60.226        -0.0310338   
60.227        -0.0310337   
60.228        -0.0310336   
60.229        -0.0310335   
60.23         -0.0310334   
60.231        -0.0310332   
60.232        -0.0310331   
60.233        -0.031033    
60.234        -0.0310329   
60.235        -0.0310328   
60.236        -0.0310326   
60.237        -0.0310325   
60.238        -0.0310324   
60.239        -0.0310323   
60.24         -0.0310321   
60.241        -0.031032    
60.242        -0.0310319   
60.243        -0.0310318   
60.244        -0.0310317   
60.245        -0.0310315   
60.246        -0.0310314   
60.247        -0.0310313   
60.248        -0.0310312   
60.249        -0.031031    
60.25         -0.0310309   
60.251        -0.0310308   
60.252        -0.0310307   
60.253        -0.0310305   
60.254        -0.0310304   
60.255        -0.0310303   
60.256        -0.0310302   
60.257        -0.0310301   
60.258        -0.0310299   
60.259        -0.0310298   
60.26         -0.0310297   
60.261        -0.0310295   
60.262        -0.0310294   
60.263        -0.0310293   
60.264        -0.0310292   
60.265        -0.0310291   
60.266        -0.0310289   
60.267        -0.0310288   
60.268        -0.0310287   
60.269        -0.0310286   
60.27         -0.0310284   
60.271        -0.0310283   
60.272        -0.0310282   
60.273        -0.0310281   
60.274        -0.0310279   
60.275        -0.0310278   
60.276        -0.0310277   
60.277        -0.0310276   
60.278        -0.0310274   
60.279        -0.0310273   
60.28         -0.0310272   
60.281        -0.0310271   
60.282        -0.0310269   
60.283        -0.0310268   
60.284        -0.0310267   
60.285        -0.0310266   
60.286        -0.0310264   
60.287        -0.0310263   
60.288        -0.0310262   
60.289        -0.031026    
60.29         -0.0310259   
60.291        -0.0310258   
60.292        -0.0310256   
60.293        -0.0310255   
60.294        -0.0310254   
60.295        -0.0310252   
60.296        -0.0310251   
60.297        -0.031025    
60.298        -0.0310249   
60.299        -0.0310247   
60.3          -0.0310246   
60.301        -0.0310245   
60.302        -0.0310244   
60.303        -0.0310242   
60.304        -0.0310241   
60.305        -0.031024    
60.306        -0.0310238   
60.307        -0.0310237   
60.308        -0.0310236   
60.309        -0.0310235   
60.31         -0.0310233   
60.311        -0.0310232   
60.312        -0.0310231   
60.313        -0.0310229   
60.314        -0.0310228   
60.315        -0.0310227   
60.316        -0.0310225   
60.317        -0.0310224   
60.318        -0.0310223   
60.319        -0.0310221   
60.32         -0.031022    
60.321        -0.0310219   
60.322        -0.0310217   
60.323        -0.0310216   
60.324        -0.0310215   
60.325        -0.0310214   
60.326        -0.0310212   
60.327        -0.0310211   
60.328        -0.031021    
60.329        -0.0310208   
60.33         -0.0310207   
60.331        -0.0310206   
60.332        -0.0310204   
60.333        -0.0310203   
60.334        -0.0310202   
60.335        -0.03102     
60.336        -0.0310199   
60.337        -0.0310198   
60.338        -0.0310196   
60.339        -0.0310195   
60.34         -0.0310194   
60.341        -0.0310192   
60.342        -0.0310191   
60.343        -0.031019    
60.344        -0.0310188   
60.345        -0.0310187   
60.346        -0.0310186   
60.347        -0.0310184   
60.348        -0.0310183   
60.349        -0.0310182   
60.35         -0.0310181   
60.351        -0.0310179   
60.352        -0.0310178   
60.353        -0.0310177   
60.354        -0.0310175   
60.355        -0.0310174   
60.356        -0.0310172   
60.357        -0.0310171   
60.358        -0.031017    
60.359        -0.0310168   
60.36         -0.0310167   
60.361        -0.0310166   
60.362        -0.0310164   
60.363        -0.0310163   
60.364        -0.0310162   
60.365        -0.031016    
60.366        -0.0310159   
60.367        -0.0310158   
60.368        -0.0310156   
60.369        -0.0310155   
60.37         -0.0310153   
60.371        -0.0310152   
60.372        -0.0310151   
60.373        -0.0310149   
60.374        -0.0310148   
60.375        -0.0310147   
60.376        -0.0310145   
60.377        -0.0310144   
60.378        -0.0310143   
60.379        -0.0310141   
60.38         -0.031014    
60.381        -0.0310138   
60.382        -0.0310137   
60.383        -0.0310136   
60.384        -0.0310134   
60.385        -0.0310133   
60.386        -0.0310132   
60.387        -0.031013    
60.388        -0.0310129   
60.389        -0.0310127   
60.39         -0.0310126   
60.391        -0.0310125   
60.392        -0.0310123   
60.393        -0.0310122   
60.394        -0.0310121   
60.395        -0.0310119   
60.396        -0.0310118   
60.397        -0.0310116   
60.398        -0.0310115   
60.399        -0.0310114   
60.4          -0.0310112   
60.401        -0.0310111   
60.402        -0.031011    
60.403        -0.0310108   
60.404        -0.0310107   
60.405        -0.0310105   
60.406        -0.0310104   
60.407        -0.0310103   
60.408        -0.0310101   
60.409        -0.03101     
60.41         -0.0310098   
60.411        -0.0310097   
60.412        -0.0310096   
60.413        -0.0310094   
60.414        -0.0310093   
60.415        -0.0310091   
60.416        -0.031009    
60.417        -0.0310089   
60.418        -0.0310087   
60.419        -0.0310086   
60.42         -0.0310084   
60.421        -0.0310083   
60.422        -0.0310081   
60.423        -0.031008    
60.424        -0.0310078   
60.425        -0.0310077   
60.426        -0.0310076   
60.427        -0.0310074   
60.428        -0.0310073   
60.429        -0.0310072   
60.43         -0.031007    
60.431        -0.0310069   
60.432        -0.0310067   
60.433        -0.0310066   
60.434        -0.0310065   
60.435        -0.0310063   
60.436        -0.0310062   
60.437        -0.031006    
60.438        -0.0310059   
60.439        -0.0310058   
60.44         -0.0310056   
60.441        -0.0310055   
60.442        -0.0310053   
60.443        -0.0310052   
60.444        -0.031005    
60.445        -0.0310049   
60.446        -0.0310048   
60.447        -0.0310046   
60.448        -0.0310045   
60.449        -0.0310043   
60.45         -0.0310042   
60.451        -0.0310041   
60.452        -0.0310039   
60.453        -0.0310038   
60.454        -0.0310036   
60.455        -0.0310035   
60.456        -0.0310034   
60.457        -0.0310032   
60.458        -0.0310031   
60.459        -0.0310029   
60.46         -0.0310028   
60.461        -0.0310026   
60.462        -0.0310025   
60.463        -0.0310023   
60.464        -0.0310022   
60.465        -0.0310021   
60.466        -0.0310019   
60.467        -0.0310018   
60.468        -0.0310016   
60.469        -0.0310015   
60.47         -0.0310013   
60.471        -0.0310012   
60.472        -0.0310011   
60.473        -0.0310009   
60.474        -0.0310008   
60.475        -0.0310006   
60.476        -0.0310005   
60.477        -0.0310003   
60.478        -0.0310002   
60.479        -0.031       
60.48         -0.0309999   
60.481        -0.0309998   
60.482        -0.0309996   
60.483        -0.0309995   
60.484        -0.0309993   
60.485        -0.0309992   
60.486        -0.030999    
60.487        -0.0309989   
60.488        -0.0309987   
60.489        -0.0309986   
60.49         -0.0309985   
60.491        -0.0309983   
60.492        -0.0309981   
60.493        -0.030998    
60.494        -0.0309979   
60.495        -0.0309977   
60.496        -0.0309976   
60.497        -0.0309974   
60.498        -0.0309973   
60.499        -0.0309972   
60.5          -0.030997    
60.501        -0.0309969   
60.502        -0.0309967   
60.503        -0.0309966   
60.504        -0.0309964   
60.505        -0.0309963   
60.506        -0.0309961   
60.507        -0.030996    
60.508        -0.0309958   
60.509        -0.0309957   
60.51         -0.0309956   
60.511        -0.0309954   
60.512        -0.0309953   
60.513        -0.0309951   
60.514        -0.030995    
60.515        -0.0309948   
60.516        -0.0309947   
60.517        -0.0309945   
60.518        -0.0309944   
60.519        -0.0309942   
60.52         -0.0309941   
60.521        -0.0309939   
60.522        -0.0309938   
60.523        -0.0309937   
60.524        -0.0309935   
60.525        -0.0309933   
60.526        -0.0309932   
60.527        -0.0309931   
60.528        -0.0309929   
60.529        -0.0309928   
60.53         -0.0309926   
60.531        -0.0309925   
60.532        -0.0309923   
60.533        -0.0309922   
60.534        -0.030992    
60.535        -0.0309919   
60.536        -0.0309917   
60.537        -0.0309916   
60.538        -0.0309914   
60.539        -0.0309913   
60.54         -0.0309912   
60.541        -0.030991    
60.542        -0.0309909   
60.543        -0.0309907   
60.544        -0.0309906   
60.545        -0.0309904   
60.546        -0.0309903   
60.547        -0.0309901   
60.548        -0.03099     
60.549        -0.0309898   
60.55         -0.0309897   
60.551        -0.0309895   
60.552        -0.0309894   
60.553        -0.0309892   
60.554        -0.0309891   
60.555        -0.0309889   
60.556        -0.0309888   
60.557        -0.0309886   
60.558        -0.0309885   
60.559        -0.0309883   
60.56         -0.0309882   
60.561        -0.030988    
60.562        -0.0309879   
60.563        -0.0309877   
60.564        -0.0309876   
60.565        -0.0309875   
60.566        -0.0309873   
60.567        -0.0309872   
60.568        -0.030987    
60.569        -0.0309869   
60.57         -0.0309867   
60.571        -0.0309866   
60.572        -0.0309864   
60.573        -0.0309863   
60.574        -0.0309861   
60.575        -0.030986    
60.576        -0.0309858   
60.577        -0.0309857   
60.578        -0.0309855   
60.579        -0.0309854   
60.58         -0.0309852   
60.581        -0.0309851   
60.582        -0.0309849   
60.583        -0.0309848   
60.584        -0.0309846   
60.585        -0.0309845   
60.586        -0.0309843   
60.587        -0.0309842   
60.588        -0.030984    
60.589        -0.0309839   
60.59         -0.0309837   
60.591        -0.0309836   
60.592        -0.0309834   
60.593        -0.0309833   
60.594        -0.0309831   
60.595        -0.030983    
60.596        -0.0309828   
60.597        -0.0309827   
60.598        -0.0309825   
60.599        -0.0309824   
60.6          -0.0309822   
60.601        -0.0309821   
60.602        -0.0309819   
60.603        -0.0309818   
60.604        -0.0309816   
60.605        -0.0309815   
60.606        -0.0309813   
60.607        -0.0309812   
60.608        -0.030981    
60.609        -0.0309809   
60.61         -0.0309807   
60.611        -0.0309806   
60.612        -0.0309804   
60.613        -0.0309803   
60.614        -0.0309801   
60.615        -0.03098     
60.616        -0.0309798   
60.617        -0.0309797   
60.618        -0.0309795   
60.619        -0.0309794   
60.62         -0.0309792   
60.621        -0.0309791   
60.622        -0.030979    
60.623        -0.0309788   
60.624        -0.0309787   
60.625        -0.0309785   
60.626        -0.0309784   
60.627        -0.0309782   
60.628        -0.030978    
60.629        -0.0309779   
60.63         -0.0309778   
60.631        -0.0309776   
60.632        -0.0309775   
60.633        -0.0309773   
60.634        -0.0309771   
60.635        -0.030977    
60.636        -0.0309768   
60.637        -0.0309767   
60.638        -0.0309765   
60.639        -0.0309764   
60.64         -0.0309762   
60.641        -0.0309761   
60.642        -0.0309759   
60.643        -0.0309758   
60.644        -0.0309756   
60.645        -0.0309755   
60.646        -0.0309753   
60.647        -0.0309752   
60.648        -0.030975    
60.649        -0.0309749   
60.65         -0.0309747   
60.651        -0.0309746   
60.652        -0.0309744   
60.653        -0.0309743   
60.654        -0.0309741   
60.655        -0.030974    
60.656        -0.0309738   
60.657        -0.0309737   
60.658        -0.0309735   
60.659        -0.0309734   
60.66         -0.0309732   
60.661        -0.0309731   
60.662        -0.0309729   
60.663        -0.0309728   
60.664        -0.0309726   
60.665        -0.0309725   
60.666        -0.0309723   
60.667        -0.0309722   
60.668        -0.030972    
60.669        -0.0309719   
60.67         -0.0309717   
60.671        -0.0309716   
60.672        -0.0309714   
60.673        -0.0309713   
60.674        -0.0309711   
60.675        -0.030971    
60.676        -0.0309708   
60.677        -0.0309707   
60.678        -0.0309705   
60.679        -0.0309703   
60.68         -0.0309702   
60.681        -0.0309701   
60.682        -0.0309699   
60.683        -0.0309698   
60.684        -0.0309696   
60.685        -0.0309695   
60.686        -0.0309693   
60.687        -0.0309691   
60.688        -0.030969    
60.689        -0.0309688   
60.69         -0.0309687   
60.691        -0.0309685   
60.692        -0.0309684   
60.693        -0.0309682   
60.694        -0.0309681   
60.695        -0.0309679   
60.696        -0.0309678   
60.697        -0.0309676   
60.698        -0.0309675   
60.699        -0.0309673   
60.7          -0.0309672   
60.701        -0.030967    
60.702        -0.0309669   
60.703        -0.0309667   
60.704        -0.0309666   
60.705        -0.0309664   
60.706        -0.0309663   
60.707        -0.0309661   
60.708        -0.030966    
60.709        -0.0309658   
60.71         -0.0309657   
60.711        -0.0309655   
60.712        -0.0309654   
60.713        -0.0309652   
60.714        -0.0309651   
60.715        -0.0309649   
60.716        -0.0309648   
60.717        -0.0309646   
60.718        -0.0309645   
60.719        -0.0309643   
60.72         -0.0309642   
60.721        -0.030964    
60.722        -0.0309639   
60.723        -0.0309637   
60.724        -0.0309636   
60.725        -0.0309634   
60.726        -0.0309632   
60.727        -0.0309631   
60.728        -0.030963    
60.729        -0.0309628   
60.73         -0.0309627   
60.731        -0.0309625   
60.732        -0.0309624   
60.733        -0.0309622   
60.734        -0.030962    
60.735        -0.0309619   
60.736        -0.0309617   
60.737        -0.0309616   
60.738        -0.0309614   
60.739        -0.0309613   
60.74         -0.0309611   
60.741        -0.030961    
60.742        -0.0309608   
60.743        -0.0309607   
60.744        -0.0309605   
60.745        -0.0309604   
60.746        -0.0309602   
60.747        -0.0309601   
60.748        -0.0309599   
60.749        -0.0309598   
60.75         -0.0309596   
60.751        -0.0309595   
60.752        -0.0309593   
60.753        -0.0309592   
60.754        -0.030959    
60.755        -0.0309589   
60.756        -0.0309587   
60.757        -0.0309586   
60.758        -0.0309584   
60.759        -0.0309583   
60.76         -0.0309581   
60.761        -0.030958    
60.762        -0.0309578   
60.763        -0.0309577   
60.764        -0.0309575   
60.765        -0.0309574   
60.766        -0.0309572   
60.767        -0.0309571   
60.768        -0.0309569   
60.769        -0.0309568   
60.77         -0.0309566   
60.771        -0.0309565   
60.772        -0.0309563   
60.773        -0.0309562   
60.774        -0.030956    
60.775        -0.0309559   
60.776        -0.0309557   
60.777        -0.0309556   
60.778        -0.0309554   
60.779        -0.0309553   
60.78         -0.0309551   
60.781        -0.0309549   
60.782        -0.0309548   
60.783        -0.0309547   
60.784        -0.0309545   
60.785        -0.0309544   
60.786        -0.0309542   
60.787        -0.0309541   
60.788        -0.0309539   
60.789        -0.0309537   
60.79         -0.0309536   
60.791        -0.0309535   
60.792        -0.0309533   
60.793        -0.0309531   
60.794        -0.030953    
60.795        -0.0309529   
60.796        -0.0309527   
60.797        -0.0309526   
60.798        -0.0309524   
60.799        -0.0309523   
60.8          -0.0309521   
60.801        -0.030952    
60.802        -0.0309518   
60.803        -0.0309516   
60.804        -0.0309515   
60.805        -0.0309513   
60.806        -0.0309512   
60.807        -0.0309511   
60.808        -0.0309509   
60.809        -0.0309508   
60.81         -0.0309506   
60.811        -0.0309505   
60.812        -0.0309503   
60.813        -0.0309502   
60.814        -0.03095     
60.815        -0.0309498   
60.816        -0.0309497   
60.817        -0.0309496   
60.818        -0.0309494   
60.819        -0.0309493   
60.82         -0.0309491   
60.821        -0.030949    
60.822        -0.0309488   
60.823        -0.0309487   
60.824        -0.0309485   
60.825        -0.0309484   
60.826        -0.0309482   
60.827        -0.0309481   
60.828        -0.0309479   
60.829        -0.0309478   
60.83         -0.0309476   
60.831        -0.0309475   
60.832        -0.0309473   
60.833        -0.0309472   
60.834        -0.030947    
60.835        -0.0309469   
60.836        -0.0309467   
60.837        -0.0309466   
60.838        -0.0309464   
60.839        -0.0309463   
60.84         -0.0309461   
60.841        -0.030946    
60.842        -0.0309458   
60.843        -0.0309457   
60.844        -0.0309455   
60.845        -0.0309454   
60.846        -0.0309452   
60.847        -0.0309451   
60.848        -0.0309449   
60.849        -0.0309448   
60.85         -0.0309446   
60.851        -0.0309445   
60.852        -0.0309443   
60.853        -0.0309442   
60.854        -0.030944    
60.855        -0.0309439   
60.856        -0.0309437   
60.857        -0.0309451   
60.858        -0.0309438   
60.859        -0.0309437   
60.86         -0.0309436   
60.861        -0.0309434   
60.862        -0.0309433   
60.863        -0.0309431   
60.864        -0.030943    
60.865        -0.0309428   
60.866        -0.0309427   
60.867        -0.0309425   
60.868        -0.0309424   
60.869        -0.0309422   
60.87         -0.0309421   
60.871        -0.0309419   
60.872        -0.0309418   
60.873        -0.0309416   
60.874        -0.0309415   
60.875        -0.0309413   
60.876        -0.0309412   
60.877        -0.0309411   
60.878        -0.0309409   
60.879        -0.0309408   
60.88         -0.0309406   
60.881        -0.0309404   
60.882        -0.0309403   
60.883        -0.0309402   
60.884        -0.03094     
60.885        -0.0309399   
60.886        -0.0309397   
60.887        -0.0309396   
60.888        -0.0309394   
60.889        -0.0309393   
60.89         -0.0309391   
60.891        -0.030939    
60.892        -0.0309388   
60.893        -0.0309387   
60.894        -0.0309385   
60.895        -0.0309384   
60.896        -0.0309383   
60.897        -0.0309381   
60.898        -0.030938    
60.899        -0.0309378   
60.9          -0.0309377   
60.901        -0.0309376   
60.902        -0.0309374   
60.903        -0.0309372   
60.904        -0.0309371   
60.905        -0.0309369   
60.906        -0.0309368   
60.907        -0.0309366   
60.908        -0.0309365   
60.909        -0.0309363   
60.91         -0.0309362   
60.911        -0.030936    
60.912        -0.0309359   
60.913        -0.0309358   
60.914        -0.0309356   
60.915        -0.0309354   
60.916        -0.0309353   
60.917        -0.0309352   
60.918        -0.030935    
60.919        -0.0309349   
60.92         -0.0309347   
60.921        -0.0309346   
60.922        -0.0309344   
60.923        -0.0309343   
60.924        -0.0309341   
60.925        -0.030934    
60.926        -0.0309339   
60.927        -0.0309337   
60.928        -0.0309336   
60.929        -0.0309334   
60.93         -0.0309333   
60.931        -0.0309331   
60.932        -0.030933    
60.933        -0.0309328   
60.934        -0.0309327   
60.935        -0.0309326   
60.936        -0.0309324   
60.937        -0.0309323   
60.938        -0.0309321   
60.939        -0.030932    
60.94         -0.0309318   
60.941        -0.0309317   
60.942        -0.0309315   
60.943        -0.0309314   
60.944        -0.0309312   
60.945        -0.0309311   
60.946        -0.030931    
60.947        -0.0309308   
60.948        -0.0309307   
60.949        -0.0309305   
60.95         -0.0309304   
60.951        -0.0309302   
60.952        -0.0309301   
60.953        -0.0309299   
60.954        -0.0309298   
60.955        -0.0309297   
60.956        -0.0309295   
60.957        -0.0309294   
60.958        -0.0309292   
60.959        -0.0309291   
60.96         -0.0309289   
60.961        -0.0309288   
60.962        -0.0309287   
60.963        -0.0309285   
60.964        -0.0309284   
60.965        -0.0309282   
60.966        -0.0309281   
60.967        -0.0309279   
60.968        -0.0309278   
60.969        -0.0309277   
60.97         -0.0309275   
60.971        -0.0309274   
60.972        -0.0309272   
60.973        -0.0309271   
60.974        -0.0309269   
60.975        -0.0309268   
60.976        -0.0309266   
60.977        -0.0309265   
60.978        -0.0309264   
60.979        -0.0309262   
60.98         -0.0309261   
60.981        -0.0309259   
60.982        -0.0309258   
60.983        -0.0309257   
60.984        -0.0309255   
60.985        -0.0309254   
60.986        -0.0309252   
60.987        -0.0309251   
60.988        -0.0309249   
60.989        -0.0309248   
60.99         -0.0309247   
60.991        -0.0309245   
60.992        -0.0309244   
60.993        -0.0309242   
60.994        -0.0309241   
60.995        -0.030924    
60.996        -0.0309238   
60.997        -0.0309237   
60.998        -0.0309235   
60.999        -0.0309234   
61            -0.0309232   
61.001        -0.0309231   
61.002        -0.030923    
61.003        -0.0309228   
61.004        -0.0309227   
61.005        -0.0309225   
61.006        -0.0309224   
61.007        -0.0309223   
61.008        -0.0309221   
61.009        -0.030922    
61.01         -0.0309218   
61.011        -0.0309217   
61.012        -0.0309216   
61.013        -0.0309214   
61.014        -0.0309213   
61.015        -0.0309211   
61.016        -0.030921    
61.017        -0.0309209   
61.018        -0.0309207   
61.019        -0.0309206   
61.02         -0.0309204   
61.021        -0.0309203   
61.022        -0.0309202   
61.023        -0.03092     
61.024        -0.0309199   
61.025        -0.0309197   
61.026        -0.0309196   
61.027        -0.0309195   
61.028        -0.0309193   
61.029        -0.0309192   
61.03         -0.030919    
61.031        -0.0309189   
61.032        -0.0309188   
61.033        -0.0309186   
61.034        -0.0309185   
61.035        -0.0309183   
61.036        -0.0309182   
61.037        -0.0309181   
61.038        -0.0309179   
61.039        -0.0309178   
61.04         -0.0309177   
61.041        -0.0309175   
61.042        -0.0309174   
61.043        -0.0309172   
61.044        -0.0309171   
61.045        -0.030917    
61.046        -0.0309168   
61.047        -0.0309167   
61.048        -0.0309166   
61.049        -0.0309164   
61.05         -0.0309163   
61.051        -0.0309161   
61.052        -0.030916    
61.053        -0.0309159   
61.054        -0.0309157   
61.055        -0.0309156   
61.056        -0.0309155   
61.057        -0.0309153   
61.058        -0.0309152   
61.059        -0.030915    
61.06         -0.0309149   
61.061        -0.0309148   
61.062        -0.0309146   
61.063        -0.0309145   
61.064        -0.0309144   
61.065        -0.0309142   
61.066        -0.0309141   
61.067        -0.030914    
61.068        -0.0309138   
61.069        -0.0309137   