# Probe 0 (0.5 0.5 0.05)
# Time        0            
60.001        (0.973443 1.50532e-05 0)
60.002        (0.973443 1.50496e-05 0)
60.003        (0.973443 1.5046e-05 0)
60.004        (0.973443 1.50425e-05 0)
60.005        (0.973443 1.50393e-05 0)
60.006        (0.973443 1.50364e-05 0)
60.007        (0.973443 1.50338e-05 0)
60.008        (0.973443 1.50315e-05 0)
60.009        (0.973443 1.50294e-05 0)
60.01         (0.973443 1.50276e-05 0)
60.011        (0.973443 1.5026e-05 0)
60.012        (0.973443 1.50246e-05 0)
60.013        (0.973443 1.50233e-05 0)
60.014        (0.973443 1.50222e-05 0)
60.015        (0.973443 1.50213e-05 0)
60.016        (0.973443 1.50204e-05 0)
60.017        (0.973443 1.50197e-05 0)
60.018        (0.973443 1.50191e-05 0)
60.019        (0.973443 1.50185e-05 0)
60.02         (0.973443 1.5018e-05 0)
60.021        (0.973443 1.50176e-05 0)
60.022        (0.973443 1.50172e-05 0)
60.023        (0.973443 1.50169e-05 0)
60.024        (0.973443 1.50166e-05 0)
60.025        (0.973444 1.50164e-05 0)
60.026        (0.973444 1.50162e-05 0)
60.027        (0.973444 1.50161e-05 0)
60.028        (0.973444 1.5016e-05 0)
60.029        (0.973444 1.50159e-05 0)
60.03         (0.973444 1.50158e-05 0)
60.031        (0.973444 1.50158e-05 0)
60.032        (0.973444 1.50158e-05 0)
60.033        (0.973444 1.50158e-05 0)
60.034        (0.973444 1.50158e-05 0)
60.035        (0.973444 1.50159e-05 0)
60.036        (0.973444 1.50159e-05 0)
60.037        (0.973444 1.5016e-05 0)
60.038        (0.973444 1.50161e-05 0)
60.039        (0.973444 1.50162e-05 0)
60.04         (0.973444 1.50163e-05 0)
60.041        (0.973444 1.50164e-05 0)
60.042        (0.973444 1.50165e-05 0)
60.043        (0.973444 1.50167e-05 0)
60.044        (0.973444 1.50168e-05 0)
60.045        (0.973444 1.50169e-05 0)
60.046        (0.973444 1.50171e-05 0)
60.047        (0.973444 1.50172e-05 0)
60.048        (0.973444 1.50173e-05 0)
60.049        (0.973444 1.50175e-05 0)
60.05         (0.973444 1.50176e-05 0)
60.051        (0.973444 1.50177e-05 0)
60.052        (0.973444 1.50179e-05 0)
60.053        (0.973444 1.5018e-05 0)
60.054        (0.973444 1.50181e-05 0)
60.055        (0.973444 1.50182e-05 0)
60.056        (0.973444 1.50183e-05 0)
60.057        (0.973444 1.50184e-05 0)
60.058        (0.973444 1.50185e-05 0)
60.059        (0.973444 1.50186e-05 0)
60.06         (0.973444 1.50187e-05 0)
60.061        (0.973444 1.50188e-05 0)
60.062        (0.973444 1.50189e-05 0)
60.063        (0.973444 1.50189e-05 0)
60.064        (0.973444 1.5019e-05 0)
60.065        (0.973444 1.5019e-05 0)
60.066        (0.973444 1.50191e-05 0)
60.067        (0.973444 1.50191e-05 0)
60.068        (0.973444 1.50191e-05 0)
60.069        (0.973444 1.50192e-05 0)
60.07         (0.973444 1.50192e-05 0)
60.071        (0.973444 1.50192e-05 0)
60.072        (0.973444 1.50192e-05 0)
60.073        (0.973444 1.50192e-05 0)
60.074        (0.973444 1.50192e-05 0)
60.075        (0.973444 1.50192e-05 0)
60.076        (0.973444 1.50192e-05 0)
60.077        (0.973444 1.50191e-05 0)
60.078        (0.973444 1.50191e-05 0)
60.079        (0.973444 1.50191e-05 0)
60.08         (0.973444 1.5019e-05 0)
60.081        (0.973444 1.5019e-05 0)
60.082        (0.973444 1.50189e-05 0)
60.083        (0.973444 1.50189e-05 0)
60.084        (0.973444 1.50188e-05 0)
60.085        (0.973444 1.50188e-05 0)
60.086        (0.973444 1.50187e-05 0)
60.087        (0.973444 1.50187e-05 0)
60.088        (0.973444 1.50186e-05 0)
60.089        (0.973444 1.50186e-05 0)
60.09         (0.973444 1.50185e-05 0)
60.091        (0.973444 1.50184e-05 0)
60.092        (0.973444 1.50184e-05 0)
60.093        (0.973444 1.50183e-05 0)
60.094        (0.973444 1.50182e-05 0)
60.095        (0.973444 1.50182e-05 0)
60.096        (0.973444 1.50181e-05 0)
60.097        (0.973444 1.50181e-05 0)
60.098        (0.973444 1.5018e-05 0)
60.099        (0.973444 1.50179e-05 0)
60.1          (0.973444 1.50179e-05 0)
60.101        (0.973444 1.50178e-05 0)
60.102        (0.973444 1.50178e-05 0)
60.103        (0.973444 1.50177e-05 0)
60.104        (0.973444 1.50177e-05 0)
60.105        (0.973444 1.50176e-05 0)
60.106        (0.973444 1.50176e-05 0)
60.107        (0.973444 1.50176e-05 0)
60.108        (0.973444 1.50175e-05 0)
60.109        (0.973444 1.50175e-05 0)
60.11         (0.973444 1.50174e-05 0)
60.111        (0.973444 1.50174e-05 0)
60.112        (0.973444 1.50174e-05 0)
60.113        (0.973444 1.50174e-05 0)
60.114        (0.973444 1.50173e-05 0)
60.115        (0.973444 1.50173e-05 0)
60.116        (0.973444 1.50173e-05 0)
60.117        (0.973444 1.50173e-05 0)
60.118        (0.973444 1.50173e-05 0)
60.119        (0.973444 1.50173e-05 0)
60.12         (0.973444 1.50173e-05 0)
60.121        (0.973444 1.50173e-05 0)
60.122        (0.973444 1.50172e-05 0)
60.123        (0.973444 1.50172e-05 0)
60.124        (0.973444 1.50173e-05 0)
60.125        (0.973444 1.50173e-05 0)
60.126        (0.973444 1.50173e-05 0)
60.127        (0.973444 1.50173e-05 0)
60.128        (0.973444 1.50173e-05 0)
60.129        (0.973444 1.50173e-05 0)
60.13         (0.973444 1.50173e-05 0)
60.131        (0.973444 1.50173e-05 0)
60.132        (0.973444 1.50173e-05 0)
60.133        (0.973444 1.50174e-05 0)
60.134        (0.973444 1.50174e-05 0)
60.135        (0.973444 1.50174e-05 0)
60.136        (0.973444 1.50174e-05 0)
60.137        (0.973444 1.50175e-05 0)
60.138        (0.973444 1.50175e-05 0)
60.139        (0.973444 1.50175e-05 0)
60.14         (0.973444 1.50175e-05 0)
60.141        (0.973444 1.50175e-05 0)
60.142        (0.973444 1.50176e-05 0)
60.143        (0.973444 1.50176e-05 0)
60.144        (0.973444 1.50176e-05 0)
60.145        (0.973444 1.50177e-05 0)
60.146        (0.973444 1.50177e-05 0)
60.147        (0.973444 1.50177e-05 0)
60.148        (0.973444 1.50177e-05 0)
60.149        (0.973445 1.50178e-05 0)
60.15         (0.973445 1.50178e-05 0)
60.151        (0.973445 1.50178e-05 0)
60.152        (0.973445 1.50178e-05 0)
60.153        (0.973445 1.50179e-05 0)
60.154        (0.973445 1.50179e-05 0)
60.155        (0.973445 1.50179e-05 0)
60.156        (0.973445 1.50179e-05 0)
60.157        (0.973445 1.50179e-05 0)
60.158        (0.973445 1.5018e-05 0)
60.159        (0.973445 1.5018e-05 0)
60.16         (0.973445 1.5018e-05 0)
60.161        (0.973445 1.5018e-05 0)
60.162        (0.973445 1.5018e-05 0)
60.163        (0.973445 1.5018e-05 0)
60.164        (0.973445 1.5018e-05 0)
60.165        (0.973445 1.50181e-05 0)
60.166        (0.973445 1.50181e-05 0)
60.167        (0.973445 1.50181e-05 0)
60.168        (0.973445 1.50181e-05 0)
60.169        (0.973445 1.50181e-05 0)
60.17         (0.973445 1.50181e-05 0)
60.171        (0.973445 1.50181e-05 0)
60.172        (0.973445 1.50181e-05 0)
60.173        (0.973445 1.50181e-05 0)
60.174        (0.973445 1.50181e-05 0)
60.175        (0.973445 1.50181e-05 0)
60.176        (0.973445 1.50181e-05 0)
60.177        (0.973445 1.50181e-05 0)
60.178        (0.973445 1.50181e-05 0)
60.179        (0.973445 1.50181e-05 0)
60.18         (0.973445 1.50181e-05 0)
60.181        (0.973445 1.50181e-05 0)
60.182        (0.973445 1.50181e-05 0)
60.183        (0.973445 1.50181e-05 0)
60.184        (0.973445 1.50181e-05 0)
60.185        (0.973445 1.50181e-05 0)
60.186        (0.973445 1.50181e-05 0)
60.187        (0.973445 1.50181e-05 0)
60.188        (0.973445 1.50181e-05 0)
60.189        (0.973445 1.5018e-05 0)
60.19         (0.973445 1.5018e-05 0)
60.191        (0.973445 1.5018e-05 0)
60.192        (0.973445 1.5018e-05 0)
60.193        (0.973445 1.5018e-05 0)
60.194        (0.973445 1.5018e-05 0)
60.195        (0.973445 1.5018e-05 0)
60.196        (0.973445 1.5018e-05 0)
60.197        (0.973445 1.5018e-05 0)
60.198        (0.973445 1.5018e-05 0)
60.199        (0.973445 1.50179e-05 0)
60.2          (0.973445 1.50179e-05 0)
60.201        (0.973445 1.50179e-05 0)
60.202        (0.973445 1.50179e-05 0)
60.203        (0.973445 1.50179e-05 0)
60.204        (0.973445 1.50179e-05 0)
60.205        (0.973445 1.50179e-05 0)
60.206        (0.973445 1.50179e-05 0)
60.207        (0.973445 1.50178e-05 0)
60.208        (0.973445 1.50178e-05 0)
60.209        (0.973445 1.50178e-05 0)
60.21         (0.973445 1.50178e-05 0)
60.211        (0.973445 1.50178e-05 0)
60.212        (0.973445 1.50178e-05 0)
60.213        (0.973445 1.50178e-05 0)
60.214        (0.973445 1.50178e-05 0)
60.215        (0.973445 1.50177e-05 0)
60.216        (0.973445 1.50177e-05 0)
60.217        (0.973445 1.50177e-05 0)
60.218        (0.973445 1.50177e-05 0)
60.219        (0.973445 1.50177e-05 0)
60.22         (0.973445 1.50177e-05 0)
60.221        (0.973445 1.50177e-05 0)
60.222        (0.973445 1.50177e-05 0)
60.223        (0.973445 1.50177e-05 0)
60.224        (0.973445 1.50177e-05 0)
60.225        (0.973445 1.50176e-05 0)
60.226        (0.973445 1.50176e-05 0)
60.227        (0.973445 1.50176e-05 0)
60.228        (0.973445 1.50176e-05 0)
60.229        (0.973445 1.50176e-05 0)
60.23         (0.973445 1.50176e-05 0)
60.231        (0.973445 1.50176e-05 0)
60.232        (0.973445 1.50176e-05 0)
60.233        (0.973445 1.50176e-05 0)
60.234        (0.973445 1.50176e-05 0)
60.235        (0.973445 1.50175e-05 0)
60.236        (0.973445 1.50175e-05 0)
60.237        (0.973445 1.50175e-05 0)
60.238        (0.973445 1.50175e-05 0)
60.239        (0.973445 1.50175e-05 0)
60.24         (0.973445 1.50175e-05 0)
60.241        (0.973445 1.50175e-05 0)
60.242        (0.973445 1.50175e-05 0)
60.243        (0.973445 1.50175e-05 0)
60.244        (0.973445 1.50175e-05 0)
60.245        (0.973445 1.50175e-05 0)
60.246        (0.973445 1.50175e-05 0)
60.247        (0.973445 1.50174e-05 0)
60.248        (0.973445 1.50175e-05 0)
60.249        (0.973445 1.50174e-05 0)
60.25         (0.973445 1.50174e-05 0)
60.251        (0.973445 1.50174e-05 0)
60.252        (0.973445 1.50174e-05 0)
60.253        (0.973445 1.50174e-05 0)
60.254        (0.973445 1.50174e-05 0)
60.255        (0.973445 1.50174e-05 0)
60.256        (0.973445 1.50174e-05 0)
60.257        (0.973445 1.50174e-05 0)
60.258        (0.973445 1.50173e-05 0)
60.259        (0.973445 1.50173e-05 0)
60.26         (0.973445 1.50173e-05 0)
60.261        (0.973445 1.50173e-05 0)
60.262        (0.973445 1.50173e-05 0)
60.263        (0.973445 1.50173e-05 0)
60.264        (0.973445 1.50173e-05 0)
60.265        (0.973445 1.50173e-05 0)
60.266        (0.973445 1.50173e-05 0)
60.267        (0.973445 1.50173e-05 0)
60.268        (0.973445 1.50172e-05 0)
60.269        (0.973445 1.50172e-05 0)
60.27         (0.973445 1.50172e-05 0)
60.271        (0.973445 1.50172e-05 0)
60.272        (0.973445 1.50172e-05 0)
60.273        (0.973445 1.50172e-05 0)
60.274        (0.973445 1.50172e-05 0)
60.275        (0.973445 1.50172e-05 0)
60.276        (0.973445 1.50171e-05 0)
60.277        (0.973445 1.50171e-05 0)
60.278        (0.973445 1.50171e-05 0)
60.279        (0.973445 1.50171e-05 0)
60.28         (0.973445 1.50171e-05 0)
60.281        (0.973445 1.50171e-05 0)
60.282        (0.973445 1.50171e-05 0)
60.283        (0.973445 1.5017e-05 0)
60.284        (0.973445 1.5017e-05 0)
60.285        (0.973445 1.5017e-05 0)
60.286        (0.973445 1.5017e-05 0)
60.287        (0.973445 1.5017e-05 0)
60.288        (0.973445 1.5017e-05 0)
60.289        (0.973445 1.5017e-05 0)
60.29         (0.973445 1.50169e-05 0)
60.291        (0.973445 1.50169e-05 0)
60.292        (0.973445 1.50169e-05 0)
60.293        (0.973445 1.50169e-05 0)
60.294        (0.973445 1.50169e-05 0)
60.295        (0.973445 1.50169e-05 0)
60.296        (0.973445 1.50168e-05 0)
60.297        (0.973445 1.50168e-05 0)
60.298        (0.973445 1.50168e-05 0)
60.299        (0.973445 1.50168e-05 0)
60.3          (0.973445 1.50168e-05 0)
60.301        (0.973445 1.50168e-05 0)
60.302        (0.973445 1.50168e-05 0)
60.303        (0.973445 1.50168e-05 0)
60.304        (0.973445 1.50167e-05 0)
60.305        (0.973445 1.50167e-05 0)
60.306        (0.973445 1.50167e-05 0)
60.307        (0.973445 1.50167e-05 0)
60.308        (0.973445 1.50167e-05 0)
60.309        (0.973445 1.50167e-05 0)
60.31         (0.973445 1.50167e-05 0)
60.311        (0.973445 1.50166e-05 0)
60.312        (0.973445 1.50166e-05 0)
60.313        (0.973445 1.50166e-05 0)
60.314        (0.973445 1.50166e-05 0)
60.315        (0.973445 1.50166e-05 0)
60.316        (0.973445 1.50166e-05 0)
60.317        (0.973446 1.50166e-05 0)
60.318        (0.973446 1.50165e-05 0)
60.319        (0.973446 1.50165e-05 0)
60.32         (0.973446 1.50165e-05 0)
60.321        (0.973446 1.50165e-05 0)
60.322        (0.973446 1.50165e-05 0)
60.323        (0.973446 1.50165e-05 0)
60.324        (0.973446 1.50165e-05 0)
60.325        (0.973446 1.50164e-05 0)
60.326        (0.973446 1.50164e-05 0)
60.327        (0.973446 1.50164e-05 0)
60.328        (0.973446 1.50164e-05 0)
60.329        (0.973446 1.50164e-05 0)
60.33         (0.973446 1.50164e-05 0)
60.331        (0.973446 1.50164e-05 0)
60.332        (0.973446 1.50163e-05 0)
60.333        (0.973446 1.50163e-05 0)
60.334        (0.973446 1.50163e-05 0)
60.335        (0.973446 1.50163e-05 0)
60.336        (0.973446 1.50163e-05 0)
60.337        (0.973446 1.50163e-05 0)
60.338        (0.973446 1.50163e-05 0)
60.339        (0.973446 1.50163e-05 0)
60.34         (0.973446 1.50162e-05 0)
60.341        (0.973446 1.50162e-05 0)
60.342        (0.973446 1.50162e-05 0)
60.343        (0.973446 1.50162e-05 0)
60.344        (0.973446 1.50162e-05 0)
60.345        (0.973446 1.50162e-05 0)
60.346        (0.973446 1.50161e-05 0)
60.347        (0.973446 1.50161e-05 0)
60.348        (0.973446 1.50161e-05 0)
60.349        (0.973446 1.50161e-05 0)
60.35         (0.973446 1.50161e-05 0)
60.351        (0.973446 1.50161e-05 0)
60.352        (0.973446 1.50161e-05 0)
60.353        (0.973446 1.5016e-05 0)
60.354        (0.973446 1.5016e-05 0)
60.355        (0.973446 1.5016e-05 0)
60.356        (0.973446 1.5016e-05 0)
60.357        (0.973446 1.5016e-05 0)
60.358        (0.973446 1.5016e-05 0)
60.359        (0.973446 1.5016e-05 0)
60.36         (0.973446 1.50159e-05 0)
60.361        (0.973446 1.50159e-05 0)
60.362        (0.973446 1.50159e-05 0)
60.363        (0.973446 1.50159e-05 0)
60.364        (0.973446 1.50159e-05 0)
60.365        (0.973446 1.50159e-05 0)
60.366        (0.973446 1.50158e-05 0)
60.367        (0.973446 1.50158e-05 0)
60.368        (0.973446 1.50158e-05 0)
60.369        (0.973446 1.50158e-05 0)
60.37         (0.973446 1.50158e-05 0)
60.371        (0.973446 1.50158e-05 0)
60.372        (0.973446 1.50157e-05 0)
60.373        (0.973446 1.50157e-05 0)
60.374        (0.973446 1.50157e-05 0)
60.375        (0.973446 1.50157e-05 0)
60.376        (0.973446 1.50157e-05 0)
60.377        (0.973446 1.50157e-05 0)
60.378        (0.973446 1.50156e-05 0)
60.379        (0.973446 1.50156e-05 0)
60.38         (0.973446 1.50156e-05 0)
60.381        (0.973446 1.50156e-05 0)
60.382        (0.973446 1.50156e-05 0)
60.383        (0.973446 1.50155e-05 0)
60.384        (0.973446 1.50155e-05 0)
60.385        (0.973446 1.50155e-05 0)
60.386        (0.973446 1.50155e-05 0)
60.387        (0.973446 1.50155e-05 0)
60.388        (0.973446 1.50155e-05 0)
60.389        (0.973446 1.50154e-05 0)
60.39         (0.973446 1.50154e-05 0)
60.391        (0.973446 1.50154e-05 0)
60.392        (0.973446 1.50154e-05 0)
60.393        (0.973446 1.50154e-05 0)
60.394        (0.973446 1.50153e-05 0)
60.395        (0.973446 1.50153e-05 0)
60.396        (0.973446 1.50153e-05 0)
60.397        (0.973446 1.50153e-05 0)
60.398        (0.973446 1.50153e-05 0)
60.399        (0.973446 1.50152e-05 0)
60.4          (0.973446 1.50152e-05 0)
60.401        (0.973446 1.50152e-05 0)
60.402        (0.973446 1.50152e-05 0)
60.403        (0.973446 1.50151e-05 0)
60.404        (0.973446 1.50151e-05 0)
60.405        (0.973446 1.50151e-05 0)
60.406        (0.973446 1.50151e-05 0)
60.407        (0.973446 1.50151e-05 0)
60.408        (0.973446 1.5015e-05 0)
60.409        (0.973446 1.5015e-05 0)
60.41         (0.973446 1.5015e-05 0)
60.411        (0.973446 1.5015e-05 0)
60.412        (0.973446 1.50149e-05 0)
60.413        (0.973446 1.50149e-05 0)
60.414        (0.973446 1.50149e-05 0)
60.415        (0.973446 1.50149e-05 0)
60.416        (0.973446 1.50148e-05 0)
60.417        (0.973446 1.50148e-05 0)
60.418        (0.973446 1.50148e-05 0)
60.419        (0.973446 1.50148e-05 0)
60.42         (0.973446 1.50148e-05 0)
60.421        (0.973446 1.50147e-05 0)
60.422        (0.973446 1.50147e-05 0)
60.423        (0.973446 1.50147e-05 0)
60.424        (0.973446 1.50147e-05 0)
60.425        (0.973446 1.50146e-05 0)
60.426        (0.973446 1.50146e-05 0)
60.427        (0.973446 1.50146e-05 0)
60.428        (0.973446 1.50146e-05 0)
60.429        (0.973446 1.50145e-05 0)
60.43         (0.973446 1.50145e-05 0)
60.431        (0.973446 1.50145e-05 0)
60.432        (0.973446 1.50145e-05 0)
60.433        (0.973446 1.50145e-05 0)
60.434        (0.973446 1.50144e-05 0)
60.435        (0.973446 1.50144e-05 0)
60.436        (0.973446 1.50144e-05 0)
60.437        (0.973446 1.50143e-05 0)
60.438        (0.973446 1.50143e-05 0)
60.439        (0.973446 1.50143e-05 0)
60.44         (0.973446 1.50143e-05 0)
60.441        (0.973446 1.50142e-05 0)
60.442        (0.973446 1.50142e-05 0)
60.443        (0.973446 1.50142e-05 0)
60.444        (0.973446 1.50142e-05 0)
60.445        (0.973446 1.50142e-05 0)
60.446        (0.973446 1.50141e-05 0)
60.447        (0.973446 1.50141e-05 0)
60.448        (0.973446 1.50141e-05 0)
60.449        (0.973446 1.50141e-05 0)
60.45         (0.973446 1.5014e-05 0)
60.451        (0.973446 1.5014e-05 0)
60.452        (0.973446 1.5014e-05 0)
60.453        (0.973446 1.5014e-05 0)
60.454        (0.973446 1.50139e-05 0)
60.455        (0.973446 1.50139e-05 0)
60.456        (0.973446 1.50139e-05 0)
60.457        (0.973446 1.50138e-05 0)
60.458        (0.973446 1.50138e-05 0)
60.459        (0.973446 1.50138e-05 0)
60.46         (0.973446 1.50138e-05 0)
60.461        (0.973446 1.50137e-05 0)
60.462        (0.973446 1.50137e-05 0)
60.463        (0.973446 1.50137e-05 0)
60.464        (0.973446 1.50137e-05 0)
60.465        (0.973446 1.50136e-05 0)
60.466        (0.973446 1.50136e-05 0)
60.467        (0.973446 1.50136e-05 0)
60.468        (0.973446 1.50136e-05 0)
60.469        (0.973446 1.50135e-05 0)
60.47         (0.973446 1.50135e-05 0)
60.471        (0.973446 1.50135e-05 0)
60.472        (0.973446 1.50134e-05 0)
60.473        (0.973446 1.50134e-05 0)
60.474        (0.973446 1.50134e-05 0)
60.475        (0.973446 1.50134e-05 0)
60.476        (0.973446 1.50133e-05 0)
60.477        (0.973446 1.50133e-05 0)
60.478        (0.973446 1.50133e-05 0)
60.479        (0.973446 1.50133e-05 0)
60.48         (0.973446 1.50132e-05 0)
60.481        (0.973446 1.50132e-05 0)
60.482        (0.973446 1.50132e-05 0)
60.483        (0.973446 1.50131e-05 0)
60.484        (0.973446 1.50131e-05 0)
60.485        (0.973446 1.50131e-05 0)
60.486        (0.973446 1.50131e-05 0)
60.487        (0.973446 1.5013e-05 0)
60.488        (0.973446 1.5013e-05 0)
60.489        (0.973446 1.5013e-05 0)
60.49         (0.973446 1.5013e-05 0)
60.491        (0.973446 1.50129e-05 0)
60.492        (0.973446 1.50129e-05 0)
60.493        (0.973446 1.50129e-05 0)
60.494        (0.973446 1.50128e-05 0)
60.495        (0.973446 1.50128e-05 0)
60.496        (0.973446 1.50128e-05 0)
60.497        (0.973446 1.50128e-05 0)
60.498        (0.973446 1.50127e-05 0)
60.499        (0.973446 1.50127e-05 0)
60.5          (0.973446 1.50127e-05 0)
60.501        (0.973446 1.50126e-05 0)
60.502        (0.973446 1.50126e-05 0)
60.503        (0.973446 1.50126e-05 0)
60.504        (0.973446 1.50126e-05 0)
60.505        (0.973446 1.50125e-05 0)
60.506        (0.973446 1.50125e-05 0)
60.507        (0.973446 1.50125e-05 0)
60.508        (0.973446 1.50124e-05 0)
60.509        (0.973446 1.50124e-05 0)
60.51         (0.973446 1.50124e-05 0)
60.511        (0.973446 1.50123e-05 0)
60.512        (0.973446 1.50123e-05 0)
60.513        (0.973446 1.50123e-05 0)
60.514        (0.973446 1.50122e-05 0)
60.515        (0.973446 1.50122e-05 0)
60.516        (0.973446 1.50122e-05 0)
60.517        (0.973446 1.50122e-05 0)
60.518        (0.973446 1.50121e-05 0)
60.519        (0.973446 1.50121e-05 0)
60.52         (0.973446 1.50121e-05 0)
60.521        (0.973446 1.5012e-05 0)
60.522        (0.973446 1.5012e-05 0)
60.523        (0.973446 1.5012e-05 0)
60.524        (0.973446 1.50119e-05 0)
60.525        (0.973446 1.50119e-05 0)
60.526        (0.973446 1.50119e-05 0)
60.527        (0.973446 1.50118e-05 0)
60.528        (0.973446 1.50118e-05 0)
60.529        (0.973446 1.50118e-05 0)
60.53         (0.973446 1.50117e-05 0)
60.531        (0.973446 1.50117e-05 0)
60.532        (0.973446 1.50117e-05 0)
60.533        (0.973446 1.50117e-05 0)
60.534        (0.973446 1.50116e-05 0)
60.535        (0.973446 1.50116e-05 0)
60.536        (0.973446 1.50116e-05 0)
60.537        (0.973446 1.50115e-05 0)
60.538        (0.973446 1.50115e-05 0)
60.539        (0.973446 1.50114e-05 0)
60.54         (0.973446 1.50114e-05 0)
60.541        (0.973446 1.50114e-05 0)
60.542        (0.973446 1.50114e-05 0)
60.543        (0.973446 1.50113e-05 0)
60.544        (0.973446 1.50113e-05 0)
60.545        (0.973446 1.50113e-05 0)
60.546        (0.973446 1.50112e-05 0)
60.547        (0.973446 1.50112e-05 0)
60.548        (0.973446 1.50112e-05 0)
60.549        (0.973446 1.50111e-05 0)
60.55         (0.973446 1.50111e-05 0)
60.551        (0.973446 1.50111e-05 0)
60.552        (0.973446 1.5011e-05 0)
60.553        (0.973446 1.5011e-05 0)
60.554        (0.973446 1.5011e-05 0)
60.555        (0.973446 1.50109e-05 0)
60.556        (0.973446 1.50109e-05 0)
60.557        (0.973446 1.50109e-05 0)
60.558        (0.973446 1.50108e-05 0)
60.559        (0.973446 1.50108e-05 0)
60.56         (0.973446 1.50108e-05 0)
60.561        (0.973446 1.50107e-05 0)
60.562        (0.973446 1.50107e-05 0)
60.563        (0.973446 1.50107e-05 0)
60.564        (0.973446 1.50106e-05 0)
60.565        (0.973446 1.50106e-05 0)
60.566        (0.973446 1.50106e-05 0)
60.567        (0.973446 1.50105e-05 0)
60.568        (0.973446 1.50105e-05 0)
60.569        (0.973446 1.50105e-05 0)
60.57         (0.973446 1.50104e-05 0)
60.571        (0.973446 1.50104e-05 0)
60.572        (0.973446 1.50103e-05 0)
60.573        (0.973446 1.50103e-05 0)
60.574        (0.973446 1.50103e-05 0)
60.575        (0.973446 1.50102e-05 0)
60.576        (0.973446 1.50102e-05 0)
60.577        (0.973446 1.50102e-05 0)
60.578        (0.973446 1.50101e-05 0)
60.579        (0.973446 1.50101e-05 0)
60.58         (0.973446 1.50101e-05 0)
60.581        (0.973446 1.501e-05 0)
60.582        (0.973446 1.501e-05 0)
60.583        (0.973446 1.501e-05 0)
60.584        (0.973446 1.50099e-05 0)
60.585        (0.973446 1.50099e-05 0)
60.586        (0.973446 1.50099e-05 0)
60.587        (0.973446 1.50098e-05 0)
60.588        (0.973446 1.50098e-05 0)
60.589        (0.973446 1.50097e-05 0)
60.59         (0.973446 1.50097e-05 0)
60.591        (0.973446 1.50097e-05 0)
60.592        (0.973446 1.50096e-05 0)
60.593        (0.973446 1.50096e-05 0)
60.594        (0.973446 1.50096e-05 0)
60.595        (0.973446 1.50095e-05 0)
60.596        (0.973446 1.50095e-05 0)
60.597        (0.973446 1.50095e-05 0)
60.598        (0.973447 1.50094e-05 0)
60.599        (0.973447 1.50094e-05 0)
60.6          (0.973447 1.50093e-05 0)
60.601        (0.973447 1.50093e-05 0)
60.602        (0.973447 1.50093e-05 0)
60.603        (0.973447 1.50092e-05 0)
60.604        (0.973447 1.50092e-05 0)
60.605        (0.973447 1.50092e-05 0)
60.606        (0.973447 1.50091e-05 0)
60.607        (0.973447 1.50091e-05 0)
60.608        (0.973447 1.5009e-05 0)
60.609        (0.973447 1.5009e-05 0)
60.61         (0.973447 1.5009e-05 0)
60.611        (0.973447 1.50089e-05 0)
60.612        (0.973447 1.50089e-05 0)
60.613        (0.973447 1.50089e-05 0)
60.614        (0.973447 1.50088e-05 0)
60.615        (0.973447 1.50088e-05 0)
60.616        (0.973447 1.50087e-05 0)
60.617        (0.973447 1.50087e-05 0)
60.618        (0.973447 1.50087e-05 0)
60.619        (0.973447 1.50086e-05 0)
60.62         (0.973447 1.50086e-05 0)
60.621        (0.973447 1.50086e-05 0)
60.622        (0.973447 1.50085e-05 0)
60.623        (0.973447 1.50085e-05 0)
60.624        (0.973447 1.50084e-05 0)
60.625        (0.973447 1.50084e-05 0)
60.626        (0.973447 1.50084e-05 0)
60.627        (0.973447 1.50083e-05 0)
60.628        (0.973447 1.50083e-05 0)
60.629        (0.973447 1.50083e-05 0)
60.63         (0.973447 1.50082e-05 0)
60.631        (0.973447 1.50082e-05 0)
60.632        (0.973447 1.50081e-05 0)
60.633        (0.973447 1.50081e-05 0)
60.634        (0.973447 1.5008e-05 0)
60.635        (0.973447 1.5008e-05 0)
60.636        (0.973447 1.5008e-05 0)
60.637        (0.973447 1.50079e-05 0)
60.638        (0.973447 1.50079e-05 0)
60.639        (0.973447 1.50079e-05 0)
60.64         (0.973447 1.50078e-05 0)
60.641        (0.973447 1.50078e-05 0)
60.642        (0.973447 1.50077e-05 0)
60.643        (0.973447 1.50077e-05 0)
60.644        (0.973447 1.50077e-05 0)
60.645        (0.973447 1.50076e-05 0)
60.646        (0.973447 1.50076e-05 0)
60.647        (0.973447 1.50075e-05 0)
60.648        (0.973447 1.50075e-05 0)
60.649        (0.973447 1.50075e-05 0)
60.65         (0.973447 1.50074e-05 0)
60.651        (0.973447 1.50074e-05 0)
60.652        (0.973447 1.50073e-05 0)
60.653        (0.973447 1.50073e-05 0)
60.654        (0.973447 1.50073e-05 0)
60.655        (0.973447 1.50072e-05 0)
60.656        (0.973447 1.50072e-05 0)
60.657        (0.973447 1.50071e-05 0)
60.658        (0.973447 1.50071e-05 0)
60.659        (0.973447 1.50071e-05 0)
60.66         (0.973447 1.5007e-05 0)
60.661        (0.973447 1.5007e-05 0)
60.662        (0.973447 1.50069e-05 0)
60.663        (0.973447 1.50069e-05 0)
60.664        (0.973447 1.50068e-05 0)
60.665        (0.973447 1.50068e-05 0)
60.666        (0.973447 1.50068e-05 0)
60.667        (0.973447 1.50067e-05 0)
60.668        (0.973447 1.50067e-05 0)
60.669        (0.973447 1.50066e-05 0)
60.67         (0.973447 1.50066e-05 0)
60.671        (0.973447 1.50066e-05 0)
60.672        (0.973447 1.50065e-05 0)
60.673        (0.973447 1.50065e-05 0)
60.674        (0.973447 1.50064e-05 0)
60.675        (0.973447 1.50064e-05 0)
60.676        (0.973447 1.50063e-05 0)
60.677        (0.973447 1.50063e-05 0)
60.678        (0.973447 1.50063e-05 0)
60.679        (0.973447 1.50062e-05 0)
60.68         (0.973447 1.50062e-05 0)
60.681        (0.973447 1.50061e-05 0)
60.682        (0.973447 1.50061e-05 0)
60.683        (0.973447 1.5006e-05 0)
60.684        (0.973447 1.5006e-05 0)
60.685        (0.973447 1.5006e-05 0)
60.686        (0.973447 1.50059e-05 0)
60.687        (0.973447 1.50059e-05 0)
60.688        (0.973447 1.50058e-05 0)
60.689        (0.973447 1.50058e-05 0)
60.69         (0.973447 1.50057e-05 0)
60.691        (0.973447 1.50057e-05 0)
60.692        (0.973447 1.50056e-05 0)
60.693        (0.973447 1.50056e-05 0)
60.694        (0.973447 1.50056e-05 0)
60.695        (0.973447 1.50055e-05 0)
60.696        (0.973447 1.50055e-05 0)
60.697        (0.973447 1.50054e-05 0)
60.698        (0.973447 1.50054e-05 0)
60.699        (0.973447 1.50053e-05 0)
60.7          (0.973447 1.50053e-05 0)
60.701        (0.973447 1.50053e-05 0)
60.702        (0.973447 1.50052e-05 0)
60.703        (0.973447 1.50052e-05 0)
60.704        (0.973447 1.50051e-05 0)
60.705        (0.973447 1.50051e-05 0)
60.706        (0.973447 1.5005e-05 0)
60.707        (0.973447 1.5005e-05 0)
60.708        (0.973447 1.50049e-05 0)
60.709        (0.973447 1.50049e-05 0)
60.71         (0.973447 1.50049e-05 0)
60.711        (0.973447 1.50048e-05 0)
60.712        (0.973447 1.50048e-05 0)
60.713        (0.973447 1.50047e-05 0)
60.714        (0.973447 1.50047e-05 0)
60.715        (0.973447 1.50046e-05 0)
60.716        (0.973447 1.50046e-05 0)
60.717        (0.973447 1.50045e-05 0)
60.718        (0.973447 1.50045e-05 0)
60.719        (0.973447 1.50044e-05 0)
60.72         (0.973447 1.50044e-05 0)
60.721        (0.973447 1.50044e-05 0)
60.722        (0.973447 1.50043e-05 0)
60.723        (0.973447 1.50043e-05 0)
60.724        (0.973447 1.50042e-05 0)
60.725        (0.973447 1.50042e-05 0)
60.726        (0.973447 1.50041e-05 0)
60.727        (0.973447 1.50041e-05 0)
60.728        (0.973447 1.5004e-05 0)
60.729        (0.973447 1.5004e-05 0)
60.73         (0.973447 1.50039e-05 0)
60.731        (0.973447 1.50039e-05 0)
60.732        (0.973447 1.50038e-05 0)
60.733        (0.973447 1.50038e-05 0)
60.734        (0.973447 1.50037e-05 0)
60.735        (0.973447 1.50037e-05 0)
60.736        (0.973447 1.50037e-05 0)
60.737        (0.973447 1.50036e-05 0)
60.738        (0.973447 1.50036e-05 0)
60.739        (0.973447 1.50035e-05 0)
60.74         (0.973447 1.50035e-05 0)
60.741        (0.973447 1.50034e-05 0)
60.742        (0.973447 1.50034e-05 0)
60.743        (0.973447 1.50033e-05 0)
60.744        (0.973447 1.50033e-05 0)
60.745        (0.973447 1.50032e-05 0)
60.746        (0.973447 1.50032e-05 0)
60.747        (0.973447 1.50031e-05 0)
60.748        (0.973447 1.50031e-05 0)
60.749        (0.973447 1.5003e-05 0)
60.75         (0.973447 1.5003e-05 0)
60.751        (0.973447 1.50029e-05 0)
60.752        (0.973447 1.50029e-05 0)
60.753        (0.973447 1.50028e-05 0)
60.754        (0.973447 1.50028e-05 0)
60.755        (0.973447 1.50027e-05 0)
60.756        (0.973447 1.50027e-05 0)
60.757        (0.973447 1.50027e-05 0)
60.758        (0.973447 1.50026e-05 0)
60.759        (0.973447 1.50026e-05 0)
60.76         (0.973447 1.50025e-05 0)
60.761        (0.973447 1.50025e-05 0)
60.762        (0.973447 1.50024e-05 0)
60.763        (0.973447 1.50023e-05 0)
60.764        (0.973447 1.50023e-05 0)
60.765        (0.973447 1.50023e-05 0)
60.766        (0.973447 1.50022e-05 0)
60.767        (0.973447 1.50022e-05 0)
60.768        (0.973447 1.50021e-05 0)
60.769        (0.973447 1.50021e-05 0)
60.77         (0.973447 1.5002e-05 0)