# Probe 0 (0.5 0.5 0.05)
# Time        0            
35.001        -0.0264434   
35.002        -0.0264439   
35.003        -0.0264455   
35.004        -0.0264454   
35.005        -0.0264462   
35.006        -0.0264469   
35.007        -0.0264477   
35.008        -0.0264484   
35.009        -0.0264492   
35.01         -0.0264499   
35.011        -0.0264507   
35.012        -0.0264514   
35.013        -0.0264521   
35.014        -0.0264529   
35.015        -0.0264536   
35.016        -0.0264544   
35.017        -0.0264551   
35.018        -0.0264558   
35.019        -0.0264566   
35.02         -0.0264573   
35.021        -0.026458    
35.022        -0.0264588   
35.023        -0.0264595   
35.024        -0.0264603   
35.025        -0.026461    
35.026        -0.0264618   
35.027        -0.0264625   
35.028        -0.0264632   
35.029        -0.026464    
35.03         -0.0264647   
35.031        -0.0264654   
35.032        -0.0264662   
35.033        -0.0264669   
35.034        -0.0264677   
35.035        -0.0264684   
35.036        -0.0264691   
35.037        -0.0264699   
35.038        -0.0264706   
35.039        -0.0264713   
35.04         -0.0264721   
35.041        -0.0264728   
35.042        -0.0264736   
35.043        -0.0264743   
35.044        -0.026475    
35.045        -0.0264758   
35.046        -0.0264765   
35.047        -0.0264772   
35.048        -0.026478    
35.049        -0.0264787   
35.05         -0.0264795   
35.051        -0.0264802   
35.052        -0.0264809   
35.053        -0.0264817   
35.054        -0.0264824   
35.055        -0.0264832   
35.056        -0.026484    
35.057        -0.0264846   
35.058        -0.0264854   
35.059        -0.0264861   
35.06         -0.0264868   
35.061        -0.0264876   
35.062        -0.0264883   
35.063        -0.026489    
35.064        -0.0264898   
35.065        -0.0264905   
35.066        -0.0264913   
35.067        -0.026492    
35.068        -0.0264927   
35.069        -0.0264935   
35.07         -0.0264942   
35.071        -0.026495    
35.072        -0.0264957   
35.073        -0.0264964   
35.074        -0.0264972   
35.075        -0.0264979   
35.076        -0.0264987   
35.077        -0.0264994   
35.078        -0.0265001   
35.079        -0.0265009   
35.08         -0.0265016   
35.081        -0.0265024   
35.082        -0.0265031   
35.083        -0.0265039   
35.084        -0.0265046   
35.085        -0.0265053   
35.086        -0.0265061   
35.087        -0.0265068   
35.088        -0.0265075   
35.089        -0.0265083   
35.09         -0.026509    
35.091        -0.0265098   
35.092        -0.0265105   
35.093        -0.0265112   
35.094        -0.026512    
35.095        -0.0265127   
35.096        -0.0265135   
35.097        -0.0265142   
35.098        -0.026515    
35.099        -0.0265157   
35.1          -0.0265164   
35.101        -0.0265172   
35.102        -0.0265179   
35.103        -0.0265187   
35.104        -0.0265194   
35.105        -0.0265201   
35.106        -0.0265209   
35.107        -0.0265216   
35.108        -0.0265224   
35.109        -0.0265231   
35.11         -0.0265238   
35.111        -0.0265246   
35.112        -0.0265253   
35.113        -0.0265261   
35.114        -0.0265268   
35.115        -0.0265276   
35.116        -0.0265283   
35.117        -0.026529    
35.118        -0.0265298   
35.119        -0.0265305   
35.12         -0.0265313   
35.121        -0.026532    
35.122        -0.0265327   
35.123        -0.0265335   
35.124        -0.0265342   
35.125        -0.026535    
35.126        -0.0265357   
35.127        -0.0265365   
35.128        -0.0265372   
35.129        -0.0265379   
35.13         -0.0265387   
35.131        -0.0265394   
35.132        -0.0265402   
35.133        -0.0265409   
35.134        -0.0265417   
35.135        -0.0265424   
35.136        -0.0265431   
35.137        -0.0265439   
35.138        -0.0265446   
35.139        -0.0265454   
35.14         -0.0265461   
35.141        -0.0265469   
35.142        -0.0265476   
35.143        -0.0265483   
35.144        -0.0265491   
35.145        -0.0265498   
35.146        -0.0265506   
35.147        -0.0265513   
35.148        -0.0265521   
35.149        -0.0265528   
35.15         -0.0265535   
35.151        -0.0265543   
35.152        -0.026555    
35.153        -0.0265558   
35.154        -0.0265565   
35.155        -0.0265573   
35.156        -0.026558    
35.157        -0.0265587   
35.158        -0.0265595   
35.159        -0.0265602   
35.16         -0.026561    
35.161        -0.0265617   
35.162        -0.0265625   
35.163        -0.0265632   
35.164        -0.026564    
35.165        -0.0265647   
35.166        -0.0265654   
35.167        -0.0265662   
35.168        -0.0265669   
35.169        -0.0265677   
35.17         -0.0265684   
35.171        -0.0265692   
35.172        -0.0265699   
35.173        -0.0265706   
35.174        -0.0265714   
35.175        -0.0265721   
35.176        -0.0265729   
35.177        -0.0265736   
35.178        -0.0265744   
35.179        -0.0265751   
35.18         -0.0265759   
35.181        -0.0265766   
35.182        -0.0265774   
35.183        -0.0265781   
35.184        -0.0265788   
35.185        -0.0265796   
35.186        -0.0265803   
35.187        -0.0265811   
35.188        -0.0265818   
35.189        -0.0265825   
35.19         -0.0265833   
35.191        -0.026584    
35.192        -0.0265848   
35.193        -0.0265855   
35.194        -0.0265863   
35.195        -0.026587    
35.196        -0.0265878   
35.197        -0.0265885   
35.198        -0.0265892   
35.199        -0.0265899   
35.2          -0.0265907   
35.201        -0.0265915   
35.202        -0.0265922   
35.203        -0.026593    
35.204        -0.0265937   
35.205        -0.0265945   
35.206        -0.0265952   
35.207        -0.026596    
35.208        -0.0265967   
35.209        -0.0265975   
35.21         -0.0265982   
35.211        -0.0265989   
35.212        -0.0265997   
35.213        -0.0266004   
35.214        -0.0266012   
35.215        -0.0266019   
35.216        -0.0266027   
35.217        -0.0266034   
35.218        -0.0266042   
35.219        -0.0266049   
35.22         -0.0266057   
35.221        -0.0266064   
35.222        -0.0266071   
35.223        -0.0266079   
35.224        -0.0266086   
35.225        -0.0266094   
35.226        -0.0266101   
35.227        -0.0266109   
35.228        -0.0266116   
35.229        -0.0266124   
35.23         -0.0266131   
35.231        -0.0266139   
35.232        -0.0266146   
35.233        -0.0266153   
35.234        -0.0266161   
35.235        -0.0266168   
35.236        -0.0266176   
35.237        -0.0266183   
35.238        -0.0266191   
35.239        -0.0266198   
35.24         -0.0266206   
35.241        -0.0266213   
35.242        -0.0266221   
35.243        -0.0266228   
35.244        -0.0266236   
35.245        -0.0266243   
35.246        -0.026625    
35.247        -0.0266258   
35.248        -0.0266265   
35.249        -0.0266273   
35.25         -0.026628    
35.251        -0.0266288   
35.252        -0.0266295   
35.253        -0.0266303   
35.254        -0.0266311   
35.255        -0.0266318   
35.256        -0.0266325   
35.257        -0.0266332   
35.258        -0.026634    
35.259        -0.0266347   
35.26         -0.0266355   
35.261        -0.0266362   
35.262        -0.026637    
35.263        -0.0266377   
35.264        -0.0266385   
35.265        -0.0266392   
35.266        -0.02664     
35.267        -0.0266407   
35.268        -0.0266414   
35.269        -0.0266422   
35.27         -0.0266429   
35.271        -0.0266437   
35.272        -0.0266444   
35.273        -0.0266452   
35.274        -0.0266459   
35.275        -0.0266467   
35.276        -0.0266474   
35.277        -0.0266482   
35.278        -0.0266489   
35.279        -0.0266497   
35.28         -0.0266504   
35.281        -0.0266512   
35.282        -0.0266519   
35.283        -0.0266526   
35.284        -0.0266534   
35.285        -0.0266541   
35.286        -0.0266549   
35.287        -0.0266556   
35.288        -0.0266564   
35.289        -0.0266571   
35.29         -0.0266579   
35.291        -0.0266586   
35.292        -0.0266594   
35.293        -0.0266601   
35.294        -0.0266609   
35.295        -0.0266616   
35.296        -0.0266624   
35.297        -0.0266631   
35.298        -0.0266639   
35.299        -0.0266646   
35.3          -0.0266653   
35.301        -0.0266661   
35.302        -0.0266668   
35.303        -0.0266677   
35.304        -0.0266683   
35.305        -0.0266691   
35.306        -0.0266698   
35.307        -0.0266705   
35.308        -0.0266713   
35.309        -0.026672    
35.31         -0.0266728   
35.311        -0.0266735   
35.312        -0.0266743   
35.313        -0.026675    
35.314        -0.0266758   
35.315        -0.0266765   
35.316        -0.0266773   
35.317        -0.026678    
35.318        -0.0266788   
35.319        -0.0266795   
35.32         -0.0266802   
35.321        -0.026681    
35.322        -0.0266817   
35.323        -0.0266825   
35.324        -0.0266832   
35.325        -0.026684    
35.326        -0.0266847   
35.327        -0.0266855   
35.328        -0.0266862   
35.329        -0.026687    
35.33         -0.0266877   
35.331        -0.0266884   
35.332        -0.0266892   
35.333        -0.02669     
35.334        -0.0266907   
35.335        -0.0266914   
35.336        -0.0266922   
35.337        -0.0266929   
35.338        -0.0266937   
35.339        -0.0266944   
35.34         -0.0266952   
35.341        -0.0266959   
35.342        -0.0266967   
35.343        -0.0266974   
35.344        -0.0266982   
35.345        -0.0266989   
35.346        -0.0266997   
35.347        -0.0267004   
35.348        -0.0267011   
35.349        -0.0267019   
35.35         -0.0267026   
35.351        -0.0267034   
35.352        -0.0267041   
35.353        -0.0267049   
35.354        -0.0267056   
35.355        -0.0267064   
35.356        -0.0267071   
35.357        -0.0267079   
35.358        -0.0267086   
35.359        -0.0267094   
35.36         -0.0267101   
35.361        -0.0267108   
35.362        -0.0267116   
35.363        -0.0267123   
35.364        -0.0267131   
35.365        -0.0267138   
35.366        -0.0267146   
35.367        -0.0267153   
35.368        -0.0267161   
35.369        -0.0267168   
35.37         -0.0267176   
35.371        -0.0267183   
35.372        -0.026719    
35.373        -0.0267198   
35.374        -0.0267205   
35.375        -0.0267213   
35.376        -0.026722    
35.377        -0.0267228   
35.378        -0.0267235   
35.379        -0.0267243   
35.38         -0.026725    
35.381        -0.0267258   
35.382        -0.0267265   
35.383        -0.0267272   
35.384        -0.026728    
35.385        -0.0267287   
35.386        -0.0267295   
35.387        -0.0267302   
35.388        -0.026731    
35.389        -0.0267317   
35.39         -0.0267324   
35.391        -0.0267331   
35.392        -0.026734    
35.393        -0.0267347   
35.394        -0.0267355   
35.395        -0.0267362   
35.396        -0.0267369   
35.397        -0.0267377   
35.398        -0.0267384   
35.399        -0.0267392   
35.4          -0.0267399   
35.401        -0.0267407   
35.402        -0.0267414   
35.403        -0.0267422   
35.404        -0.0267429   
35.405        -0.0267436   
35.406        -0.0267444   
35.407        -0.0267451   
35.408        -0.0267459   
35.409        -0.0267466   
35.41         -0.0267474   
35.411        -0.0267481   
35.412        -0.0267489   
35.413        -0.0267496   
35.414        -0.0267503   
35.415        -0.0267511   
35.416        -0.0267518   
35.417        -0.0267526   
35.418        -0.0267533   
35.419        -0.0267541   
35.42         -0.0267549   
35.421        -0.0267556   
35.422        -0.0267563   
35.423        -0.026757    
35.424        -0.0267578   
35.425        -0.0267585   
35.426        -0.0267593   
35.427        -0.02676     
35.428        -0.0267608   
35.429        -0.0267615   
35.43         -0.0267622   
35.431        -0.026763    
35.432        -0.0267637   
35.433        -0.0267645   
35.434        -0.0267652   
35.435        -0.026766    
35.436        -0.0267667   
35.437        -0.0267675   
35.438        -0.0267682   
35.439        -0.0267689   
35.44         -0.0267697   
35.441        -0.0267704   
35.442        -0.0267712   
35.443        -0.0267719   
35.444        -0.0267727   
35.445        -0.0267734   
35.446        -0.0267742   
35.447        -0.0267749   
35.448        -0.0267756   
35.449        -0.0267764   
35.45         -0.0267771   
35.451        -0.0267779   
35.452        -0.0267786   
35.453        -0.0267793   
35.454        -0.0267801   
35.455        -0.0267808   
35.456        -0.0267816   
35.457        -0.0267823   
35.458        -0.0267831   
35.459        -0.0267838   
35.46         -0.0267845   
35.461        -0.0267853   
35.462        -0.026786    
35.463        -0.0267868   
35.464        -0.0267875   
35.465        -0.0267883   
35.466        -0.026789    
35.467        -0.0267898   
35.468        -0.0267905   
35.469        -0.0267912   
35.47         -0.026792    
35.471        -0.0267927   
35.472        -0.0267935   
35.473        -0.0267942   
35.474        -0.0267949   
35.475        -0.0267957   
35.476        -0.0267964   
35.477        -0.0267972   
35.478        -0.0267979   
35.479        -0.0267987   
35.48         -0.0267994   
35.481        -0.0268001   
35.482        -0.0268009   
35.483        -0.0268016   
35.484        -0.0268024   
35.485        -0.0268031   
35.486        -0.0268039   
35.487        -0.0268046   
35.488        -0.0268053   
35.489        -0.0268061   
35.49         -0.0268068   
35.491        -0.0268076   
35.492        -0.0268083   
35.493        -0.026809    
35.494        -0.0268098   
35.495        -0.0268105   
35.496        -0.0268113   
35.497        -0.026812    
35.498        -0.0268127   
35.499        -0.0268135   
35.5          -0.0268142   
35.501        -0.026815    
35.502        -0.0268157   
35.503        -0.0268165   
35.504        -0.0268172   
35.505        -0.0268179   
35.506        -0.0268187   
35.507        -0.0268194   
35.508        -0.0268202   
35.509        -0.0268209   
35.51         -0.0268216   
35.511        -0.0268224   
35.512        -0.0268231   
35.513        -0.0268239   
35.514        -0.0268246   
35.515        -0.0268253   
35.516        -0.0268261   
35.517        -0.0268268   
35.518        -0.0268276   
35.519        -0.0268283   
35.52         -0.026829    
35.521        -0.0268298   
35.522        -0.0268305   
35.523        -0.0268313   
35.524        -0.026832    
35.525        -0.0268327   
35.526        -0.0268335   
35.527        -0.0268342   
35.528        -0.026835    
35.529        -0.0268357   
35.53         -0.0268364   
35.531        -0.0268372   
35.532        -0.0268379   
35.533        -0.0268387   
35.534        -0.0268394   
35.535        -0.0268402   
35.536        -0.0268409   
35.537        -0.0268417   
35.538        -0.0268424   
35.539        -0.0268431   
35.54         -0.0268438   
35.541        -0.0268446   
35.542        -0.0268453   
35.543        -0.026846    
35.544        -0.0268468   
35.545        -0.0268475   
35.546        -0.0268482   
35.547        -0.026849    
35.548        -0.0268497   
35.549        -0.0268504   
35.55         -0.0268512   
35.551        -0.026852    
35.552        -0.0268527   
35.553        -0.0268534   
35.554        -0.0268542   
35.555        -0.0268549   
35.556        -0.0268557   
35.557        -0.0268564   
35.558        -0.0268571   
35.559        -0.0268578   
35.56         -0.0268586   
35.561        -0.0268593   
35.562        -0.02686     
35.563        -0.0268608   
35.564        -0.0268615   
35.565        -0.0268623   
35.566        -0.026863    
35.567        -0.0268637   
35.568        -0.0268645   
35.569        -0.0268652   
35.57         -0.0268659   
35.571        -0.0268667   
35.572        -0.0268674   
35.573        -0.0268681   
35.574        -0.0268689   
35.575        -0.0268696   
35.576        -0.0268703   
35.577        -0.0268711   
35.578        -0.0268718   
35.579        -0.0268726   
35.58         -0.0268733   
35.581        -0.0268741   
35.582        -0.0268748   
35.583        -0.0268755   
35.584        -0.0268763   
35.585        -0.026877    
35.586        -0.0268777   
35.587        -0.0268785   
35.588        -0.0268792   
35.589        -0.0268799   
35.59         -0.0268807   
35.591        -0.0268814   
35.592        -0.0268822   
35.593        -0.0268829   
35.594        -0.0268836   
35.595        -0.0268844   
35.596        -0.0268851   
35.597        -0.0268858   
35.598        -0.0268865   
35.599        -0.0268873   
35.6          -0.026888    
35.601        -0.0268887   
35.602        -0.0268895   
35.603        -0.0268902   
35.604        -0.026891    
35.605        -0.0268917   
35.606        -0.0268924   
35.607        -0.0268932   
35.608        -0.0268939   
35.609        -0.0268946   
35.61         -0.0268954   
35.611        -0.0268961   
35.612        -0.0268968   
35.613        -0.0268976   
35.614        -0.0268983   
35.615        -0.026899    
35.616        -0.0268998   
35.617        -0.0269005   
35.618        -0.0269012   
35.619        -0.026902    
35.62         -0.0269027   
35.621        -0.0269034   
35.622        -0.0269042   
35.623        -0.0269049   
35.624        -0.0269056   
35.625        -0.0269064   
35.626        -0.0269071   
35.627        -0.0269078   
35.628        -0.0269086   
35.629        -0.0269093   
35.63         -0.02691     
35.631        -0.0269108   
35.632        -0.0269115   
35.633        -0.0269122   
35.634        -0.026913    
35.635        -0.0269137   
35.636        -0.0269144   
35.637        -0.0269152   
35.638        -0.0269159   
35.639        -0.0269166   
35.64         -0.0269173   
35.641        -0.0269181   
35.642        -0.0269188   
35.643        -0.0269195   
35.644        -0.0269203   
35.645        -0.026921    
35.646        -0.0269217   
35.647        -0.0269225   
35.648        -0.0269232   
35.649        -0.0269239   
35.65         -0.0269247   
35.651        -0.0269254   
35.652        -0.0269261   
35.653        -0.0269269   
35.654        -0.0269276   
35.655        -0.0269283   
35.656        -0.0269291   
35.657        -0.0269298   
35.658        -0.0269305   
35.659        -0.0269312   
35.66         -0.0269319   
35.661        -0.0269327   
35.662        -0.0269334   
35.663        -0.0269341   
35.664        -0.0269349   
35.665        -0.0269356   
35.666        -0.0269363   
35.667        -0.026937    
35.668        -0.0269378   
35.669        -0.0269385   
35.67         -0.0269392   
35.671        -0.02694     
35.672        -0.0269407   
35.673        -0.0269414   
35.674        -0.0269421   
35.675        -0.0269429   
35.676        -0.0269436   
35.677        -0.0269443   
35.678        -0.0269451   
35.679        -0.0269458   
35.68         -0.0269465   
35.681        -0.0269472   
35.682        -0.026948    
35.683        -0.0269487   
35.684        -0.0269494   
35.685        -0.0269501   
35.686        -0.0269508   
35.687        -0.0269516   
35.688        -0.0269523   
35.689        -0.026953    
35.69         -0.0269538   
35.691        -0.0269545   
35.692        -0.0269552   
35.693        -0.0269559   
35.694        -0.0269567   
35.695        -0.0269574   
35.696        -0.0269581   
35.697        -0.0269588   
35.698        -0.0269596   
35.699        -0.0269603   
35.7          -0.026961    
35.701        -0.0269617   
35.702        -0.0269625   
35.703        -0.0269632   
35.704        -0.0269639   
35.705        -0.0269647   
35.706        -0.0269654   
35.707        -0.0269661   
35.708        -0.0269668   
35.709        -0.0269676   
35.71         -0.0269683   
35.711        -0.026969    
35.712        -0.0269697   
35.713        -0.0269704   
35.714        -0.0269712   
35.715        -0.0269719   
35.716        -0.0269726   
35.717        -0.0269733   
35.718        -0.0269741   
35.719        -0.0269748   
35.72         -0.0269755   
35.721        -0.0269762   
35.722        -0.026977    
35.723        -0.0269777   
35.724        -0.0269784   
35.725        -0.0269791   
35.726        -0.0269798   
35.727        -0.0269806   
35.728        -0.0269813   
35.729        -0.026982    
35.73         -0.0269827   
35.731        -0.0269835   
35.732        -0.0269842   
35.733        -0.0269849   
35.734        -0.0269856   
35.735        -0.0269863   
35.736        -0.0269871   
35.737        -0.0269878   
35.738        -0.0269885   
35.739        -0.0269892   
35.74         -0.02699     
35.741        -0.0269907   
35.742        -0.0269914   
35.743        -0.0269921   
35.744        -0.0269928   
35.745        -0.0269936   
35.746        -0.0269943   
35.747        -0.026995    
35.748        -0.0269957   
35.749        -0.0269964   
35.75         -0.0269972   
35.751        -0.0269979   
35.752        -0.0269986   
35.753        -0.0269993   
35.754        -0.027       
35.755        -0.0270008   
35.756        -0.0270015   
35.757        -0.0270022   
35.758        -0.0270029   
35.759        -0.0270036   
35.76         -0.0270043   
35.761        -0.027005    
35.762        -0.0270057   
35.763        -0.0270065   
35.764        -0.0270072   
35.765        -0.0270079   
35.766        -0.0270087   
35.767        -0.0270094   
35.768        -0.0270101   
35.769        -0.0270108   
35.77         -0.0270115   
35.771        -0.0270123   
35.772        -0.027013    
35.773        -0.0270137   
35.774        -0.0270144   
35.775        -0.0270151   
35.776        -0.0270159   
35.777        -0.0270166   
35.778        -0.0270174   
35.779        -0.027018    
35.78         -0.0270187   
35.781        -0.0270194   
35.782        -0.0270201   
35.783        -0.0270208   
35.784        -0.0270215   
35.785        -0.0270223   
35.786        -0.027023    
35.787        -0.0270237   
35.788        -0.0270244   
35.789        -0.0270251   
35.79         -0.0270258   
35.791        -0.0270266   
35.792        -0.0270273   
35.793        -0.027028    
35.794        -0.0270287   
35.795        -0.0270294   
35.796        -0.0270301   
35.797        -0.0270308   
35.798        -0.0270316   
35.799        -0.0270323   
35.8          -0.027033    
35.801        -0.0270337   
35.802        -0.0270344   
35.803        -0.0270351   
35.804        -0.0270358   
35.805        -0.0270365   
35.806        -0.0270373   
35.807        -0.027038    
35.808        -0.0270387   
35.809        -0.0270394   
35.81         -0.0270401   
35.811        -0.0270408   
35.812        -0.0270415   
35.813        -0.0270422   
35.814        -0.027043    
35.815        -0.0270437   
35.816        -0.0270444   
35.817        -0.0270451   
35.818        -0.0270458   
35.819        -0.0270465   
35.82         -0.0270472   
35.821        -0.0270479   
35.822        -0.0270486   
35.823        -0.0270494   
35.824        -0.0270501   
35.825        -0.0270508   
35.826        -0.0270515   
35.827        -0.0270522   
35.828        -0.0270529   
35.829        -0.0270536   
35.83         -0.0270543   
35.831        -0.027055    
35.832        -0.0270557   
35.833        -0.0270565   
35.834        -0.0270572   
35.835        -0.0270579   
35.836        -0.0270586   
35.837        -0.0270593   
35.838        -0.02706     
35.839        -0.0270607   
35.84         -0.0270614   
35.841        -0.0270621   
35.842        -0.0270628   
35.843        -0.0270635   
35.844        -0.0270642   
35.845        -0.0270649   
35.846        -0.0270656   
35.847        -0.0270664   
35.848        -0.0270671   
35.849        -0.0270678   
35.85         -0.0270685   
35.851        -0.0270692   
35.852        -0.0270699   
35.853        -0.0270706   
35.854        -0.0270713   
35.855        -0.027072    
35.856        -0.0270727   
35.857        -0.0270734   
35.858        -0.0270741   
35.859        -0.0270748   
35.86         -0.0270755   
35.861        -0.0270762   
35.862        -0.027077    
35.863        -0.0270776   
35.864        -0.0270784   
35.865        -0.0270791   
35.866        -0.0270798   
35.867        -0.0270805   
35.868        -0.0270812   
35.869        -0.0270819   
35.87         -0.0270826   
35.871        -0.0270833   
35.872        -0.027084    
35.873        -0.0270847   
35.874        -0.0270854   
35.875        -0.0270861   
35.876        -0.0270868   
35.877        -0.0270875   
35.878        -0.0270882   
35.879        -0.0270889   
35.88         -0.0270896   
35.881        -0.0270903   
35.882        -0.027091    
35.883        -0.0270917   
35.884        -0.0270924   
35.885        -0.0270931   
35.886        -0.0270938   
35.887        -0.0270945   
35.888        -0.0270952   
35.889        -0.0270959   
35.89         -0.0270966   
35.891        -0.0270973   
35.892        -0.027098    
35.893        -0.0270987   
35.894        -0.0270994   
35.895        -0.0271001   
35.896        -0.0271008   
35.897        -0.0271015   
35.898        -0.0271022   
35.899        -0.0271029   
35.9          -0.0271036   
35.901        -0.0271043   
35.902        -0.027105    
35.903        -0.0271057   
35.904        -0.0271064   
35.905        -0.0271071   
35.906        -0.0271079   
35.907        -0.0271086   
35.908        -0.0271092   
35.909        -0.0271099   
35.91         -0.0271106   
35.911        -0.0271113   
35.912        -0.027112    
35.913        -0.0271127   
35.914        -0.0271134   
35.915        -0.0271141   
35.916        -0.0271148   
35.917        -0.0271155   
35.918        -0.0271162   
35.919        -0.0271168   
35.92         -0.0271176   
35.921        -0.0271182   
35.922        -0.0271189   
35.923        -0.0271196   
35.924        -0.0271203   
35.925        -0.027121    
35.926        -0.0271217   
35.927        -0.0271224   
35.928        -0.0271231   
35.929        -0.0271238   
35.93         -0.0271245   
35.931        -0.0271252   
35.932        -0.0271259   
35.933        -0.0271266   
35.934        -0.0271273   
35.935        -0.027128    
35.936        -0.0271287   
35.937        -0.0271294   
35.938        -0.02713     
35.939        -0.0271307   
35.94         -0.0271314   
35.941        -0.0271321   
35.942        -0.0271328   
35.943        -0.0271335   
35.944        -0.0271342   
35.945        -0.0271349   
35.946        -0.0271356   
35.947        -0.0271362   
35.948        -0.027137    
35.949        -0.0271376   
35.95         -0.0271383   
35.951        -0.027139    
35.952        -0.0271397   
35.953        -0.0271404   
35.954        -0.0271411   
35.955        -0.0271418   
35.956        -0.0271425   
35.957        -0.0271432   
35.958        -0.0271439   
35.959        -0.0271446   
35.96         -0.0271453   
35.961        -0.0271459   
35.962        -0.0271466   
35.963        -0.0271473   
35.964        -0.027148    
35.965        -0.0271487   
35.966        -0.0271494   
35.967        -0.0271501   
35.968        -0.0271507   
35.969        -0.0271515   
35.97         -0.0271521   
35.971        -0.0271528   
35.972        -0.0271535   
35.973        -0.0271542   
35.974        -0.0271549   
35.975        -0.0271556   
35.976        -0.0271563   
35.977        -0.0271569   
35.978        -0.0271576   
35.979        -0.0271583   
35.98         -0.027159    
35.981        -0.0271597   
35.982        -0.0271604   
35.983        -0.027161    
35.984        -0.0271617   
35.985        -0.0271624   
35.986        -0.0271631   
35.987        -0.0271638   
35.988        -0.0271645   
35.989        -0.0271651   
35.99         -0.0271658   
35.991        -0.0271665   
35.992        -0.0271672   
35.993        -0.0271679   
35.994        -0.0271686   
35.995        -0.0271693   
35.996        -0.0271699   
35.997        -0.0271706   
35.998        -0.0271713   
35.999        -0.027172    
36            -0.0271727   
36.001        -0.0271733   
36.002        -0.027174    
36.003        -0.0271747   
36.004        -0.0271754   
36.005        -0.027176    
36.006        -0.0271767   
36.007        -0.0271774   
36.008        -0.0271781   
36.009        -0.0271788   
36.01         -0.0271794   
36.011        -0.0271801   
36.012        -0.0271808   
36.013        -0.0271815   
36.014        -0.0271822   
36.015        -0.0271829   
36.016        -0.0271835   
36.017        -0.0271842   
36.018        -0.0271849   
36.019        -0.0271856   
36.02         -0.0271863   
36.021        -0.027187    
36.022        -0.0271876   
36.023        -0.0271883   
36.024        -0.027189    
36.025        -0.0271897   
36.026        -0.0271903   
36.027        -0.027191    
36.028        -0.0271917   
36.029        -0.0271923   
36.03         -0.027193    
36.031        -0.0271937   
36.032        -0.0271944   
36.033        -0.0271951   
36.034        -0.0271957   
36.035        -0.0271964   
36.036        -0.0271971   
36.037        -0.0271978   
36.038        -0.0271984   
36.039        -0.0271991   
36.04         -0.0271998   
36.041        -0.0272005   
36.042        -0.0272011   
36.043        -0.0272018   
36.044        -0.0272025   
36.045        -0.0272032   
36.046        -0.0272039   
36.047        -0.0272045   
36.048        -0.0272052   
36.049        -0.0272058   
36.05         -0.0272065   
36.051        -0.0272072   
36.052        -0.0272078   
36.053        -0.0272085   
36.054        -0.0272092   
36.055        -0.0272099   
36.056        -0.0272105   
36.057        -0.0272112   
36.058        -0.0272119   
36.059        -0.0272126   
36.06         -0.0272132   
36.061        -0.0272139   
36.062        -0.0272145   
36.063        -0.0272152   
36.064        -0.0272159   
36.065        -0.0272165   
36.066        -0.0272172   
36.067        -0.0272179   
36.068        -0.0272186   
36.069        -0.0272192   