# Probe 0 (0.5 0.5 0.05)
# Time        0            
35.001        (0.972004 1.60661e-05 0)
35.002        (0.972004 1.60657e-05 0)
35.003        (0.972005 1.60657e-05 0)
35.004        (0.972005 1.60659e-05 0)
35.005        (0.972005 1.60663e-05 0)
35.006        (0.972005 1.60668e-05 0)
35.007        (0.972005 1.60673e-05 0)
35.008        (0.972006 1.60678e-05 0)
35.009        (0.972006 1.60683e-05 0)
35.01         (0.972006 1.60688e-05 0)
35.011        (0.972006 1.60692e-05 0)
35.012        (0.972006 1.60696e-05 0)
35.013        (0.972007 1.607e-05 0)
35.014        (0.972007 1.60703e-05 0)
35.015        (0.972007 1.60706e-05 0)
35.016        (0.972007 1.60708e-05 0)
35.017        (0.972007 1.6071e-05 0)
35.018        (0.972008 1.60712e-05 0)
35.019        (0.972008 1.60713e-05 0)
35.02         (0.972008 1.60714e-05 0)
35.021        (0.972008 1.60715e-05 0)
35.022        (0.972008 1.60716e-05 0)
35.023        (0.972008 1.60716e-05 0)
35.024        (0.972009 1.60716e-05 0)
35.025        (0.972009 1.60715e-05 0)
35.026        (0.972009 1.60715e-05 0)
35.027        (0.972009 1.60714e-05 0)
35.028        (0.972009 1.60714e-05 0)
35.029        (0.972009 1.60713e-05 0)
35.03         (0.97201 1.60712e-05 0)
35.031        (0.97201 1.60711e-05 0)
35.032        (0.97201 1.60709e-05 0)
35.033        (0.97201 1.60708e-05 0)
35.034        (0.97201 1.60707e-05 0)
35.035        (0.972011 1.60705e-05 0)
35.036        (0.972011 1.60703e-05 0)
35.037        (0.972011 1.60702e-05 0)
35.038        (0.972011 1.607e-05 0)
35.039        (0.972011 1.60698e-05 0)
35.04         (0.972011 1.60696e-05 0)
35.041        (0.972012 1.60694e-05 0)
35.042        (0.972012 1.60692e-05 0)
35.043        (0.972012 1.6069e-05 0)
35.044        (0.972012 1.60688e-05 0)
35.045        (0.972012 1.60686e-05 0)
35.046        (0.972012 1.60684e-05 0)
35.047        (0.972013 1.60682e-05 0)
35.048        (0.972013 1.6068e-05 0)
35.049        (0.972013 1.60678e-05 0)
35.05         (0.972013 1.60676e-05 0)
35.051        (0.972013 1.60673e-05 0)
35.052        (0.972014 1.60671e-05 0)
35.053        (0.972014 1.60669e-05 0)
35.054        (0.972014 1.60667e-05 0)
35.055        (0.972014 1.60665e-05 0)
35.056        (0.972014 1.60663e-05 0)
35.057        (0.972014 1.60661e-05 0)
35.058        (0.972015 1.60659e-05 0)
35.059        (0.972015 1.60657e-05 0)
35.06         (0.972015 1.60655e-05 0)
35.061        (0.972015 1.60653e-05 0)
35.062        (0.972015 1.60651e-05 0)
35.063        (0.972015 1.60649e-05 0)
35.064        (0.972016 1.60647e-05 0)
35.065        (0.972016 1.60645e-05 0)
35.066        (0.972016 1.60643e-05 0)
35.067        (0.972016 1.60641e-05 0)
35.068        (0.972016 1.6064e-05 0)
35.069        (0.972017 1.60638e-05 0)
35.07         (0.972017 1.60636e-05 0)
35.071        (0.972017 1.60634e-05 0)
35.072        (0.972017 1.60633e-05 0)
35.073        (0.972017 1.60631e-05 0)
35.074        (0.972017 1.6063e-05 0)
35.075        (0.972018 1.60628e-05 0)
35.076        (0.972018 1.60626e-05 0)
35.077        (0.972018 1.60625e-05 0)
35.078        (0.972018 1.60624e-05 0)
35.079        (0.972018 1.60622e-05 0)
35.08         (0.972018 1.60621e-05 0)
35.081        (0.972019 1.60619e-05 0)
35.082        (0.972019 1.60618e-05 0)
35.083        (0.972019 1.60617e-05 0)
35.084        (0.972019 1.60615e-05 0)
35.085        (0.972019 1.60614e-05 0)
35.086        (0.97202 1.60613e-05 0)
35.087        (0.97202 1.60612e-05 0)
35.088        (0.97202 1.6061e-05 0)
35.089        (0.97202 1.60609e-05 0)
35.09         (0.97202 1.60608e-05 0)
35.091        (0.97202 1.60607e-05 0)
35.092        (0.972021 1.60606e-05 0)
35.093        (0.972021 1.60604e-05 0)
35.094        (0.972021 1.60603e-05 0)
35.095        (0.972021 1.60602e-05 0)
35.096        (0.972021 1.60601e-05 0)
35.097        (0.972022 1.606e-05 0)
35.098        (0.972022 1.60599e-05 0)
35.099        (0.972022 1.60597e-05 0)
35.1          (0.972022 1.60596e-05 0)
35.101        (0.972022 1.60595e-05 0)
35.102        (0.972022 1.60594e-05 0)
35.103        (0.972023 1.60593e-05 0)
35.104        (0.972023 1.60592e-05 0)
35.105        (0.972023 1.60591e-05 0)
35.106        (0.972023 1.6059e-05 0)
35.107        (0.972023 1.60588e-05 0)
35.108        (0.972023 1.60587e-05 0)
35.109        (0.972024 1.60586e-05 0)
35.11         (0.972024 1.60585e-05 0)
35.111        (0.972024 1.60584e-05 0)
35.112        (0.972024 1.60582e-05 0)
35.113        (0.972024 1.60581e-05 0)
35.114        (0.972025 1.6058e-05 0)
35.115        (0.972025 1.60579e-05 0)
35.116        (0.972025 1.60578e-05 0)
35.117        (0.972025 1.60576e-05 0)
35.118        (0.972025 1.60575e-05 0)
35.119        (0.972025 1.60574e-05 0)
35.12         (0.972026 1.60573e-05 0)
35.121        (0.972026 1.60571e-05 0)
35.122        (0.972026 1.6057e-05 0)
35.123        (0.972026 1.60569e-05 0)
35.124        (0.972026 1.60567e-05 0)
35.125        (0.972026 1.60566e-05 0)
35.126        (0.972027 1.60565e-05 0)
35.127        (0.972027 1.60563e-05 0)
35.128        (0.972027 1.60562e-05 0)
35.129        (0.972027 1.60561e-05 0)
35.13         (0.972027 1.60559e-05 0)
35.131        (0.972028 1.60558e-05 0)
35.132        (0.972028 1.60557e-05 0)
35.133        (0.972028 1.60555e-05 0)
35.134        (0.972028 1.60554e-05 0)
35.135        (0.972028 1.60553e-05 0)
35.136        (0.972028 1.60551e-05 0)
35.137        (0.972029 1.6055e-05 0)
35.138        (0.972029 1.60549e-05 0)
35.139        (0.972029 1.60547e-05 0)
35.14         (0.972029 1.60546e-05 0)
35.141        (0.972029 1.60544e-05 0)
35.142        (0.972029 1.60543e-05 0)
35.143        (0.97203 1.60542e-05 0)
35.144        (0.97203 1.6054e-05 0)
35.145        (0.97203 1.60539e-05 0)
35.146        (0.97203 1.60537e-05 0)
35.147        (0.97203 1.60536e-05 0)
35.148        (0.972031 1.60534e-05 0)
35.149        (0.972031 1.60533e-05 0)
35.15         (0.972031 1.60532e-05 0)
35.151        (0.972031 1.6053e-05 0)
35.152        (0.972031 1.60529e-05 0)
35.153        (0.972031 1.60527e-05 0)
35.154        (0.972032 1.60526e-05 0)
35.155        (0.972032 1.60525e-05 0)
35.156        (0.972032 1.60523e-05 0)
35.157        (0.972032 1.60522e-05 0)
35.158        (0.972032 1.60521e-05 0)
35.159        (0.972032 1.60519e-05 0)
35.16         (0.972033 1.60518e-05 0)
35.161        (0.972033 1.60516e-05 0)
35.162        (0.972033 1.60515e-05 0)
35.163        (0.972033 1.60514e-05 0)
35.164        (0.972033 1.60512e-05 0)
35.165        (0.972034 1.60511e-05 0)
35.166        (0.972034 1.6051e-05 0)
35.167        (0.972034 1.60508e-05 0)
35.168        (0.972034 1.60507e-05 0)
35.169        (0.972034 1.60505e-05 0)
35.17         (0.972034 1.60504e-05 0)
35.171        (0.972035 1.60503e-05 0)
35.172        (0.972035 1.60501e-05 0)
35.173        (0.972035 1.605e-05 0)
35.174        (0.972035 1.60499e-05 0)
35.175        (0.972035 1.60497e-05 0)
35.176        (0.972035 1.60496e-05 0)
35.177        (0.972036 1.60495e-05 0)
35.178        (0.972036 1.60493e-05 0)
35.179        (0.972036 1.60492e-05 0)
35.18         (0.972036 1.60491e-05 0)
35.181        (0.972036 1.60489e-05 0)
35.182        (0.972037 1.60488e-05 0)
35.183        (0.972037 1.60487e-05 0)
35.184        (0.972037 1.60485e-05 0)
35.185        (0.972037 1.60484e-05 0)
35.186        (0.972037 1.60483e-05 0)
35.187        (0.972037 1.60481e-05 0)
35.188        (0.972038 1.6048e-05 0)
35.189        (0.972038 1.60479e-05 0)
35.19         (0.972038 1.60477e-05 0)
35.191        (0.972038 1.60476e-05 0)
35.192        (0.972038 1.60475e-05 0)
35.193        (0.972038 1.60473e-05 0)
35.194        (0.972039 1.60472e-05 0)
35.195        (0.972039 1.60471e-05 0)
35.196        (0.972039 1.60469e-05 0)
35.197        (0.972039 1.60468e-05 0)
35.198        (0.972039 1.60466e-05 0)
35.199        (0.97204 1.60465e-05 0)
35.2          (0.97204 1.60464e-05 0)
35.201        (0.97204 1.60462e-05 0)
35.202        (0.97204 1.60461e-05 0)
35.203        (0.97204 1.6046e-05 0)
35.204        (0.97204 1.60458e-05 0)
35.205        (0.972041 1.60457e-05 0)
35.206        (0.972041 1.60456e-05 0)
35.207        (0.972041 1.60454e-05 0)
35.208        (0.972041 1.60453e-05 0)
35.209        (0.972041 1.60452e-05 0)
35.21         (0.972041 1.6045e-05 0)
35.211        (0.972042 1.60449e-05 0)
35.212        (0.972042 1.60447e-05 0)
35.213        (0.972042 1.60446e-05 0)
35.214        (0.972042 1.60445e-05 0)
35.215        (0.972042 1.60443e-05 0)
35.216        (0.972043 1.60442e-05 0)
35.217        (0.972043 1.60441e-05 0)
35.218        (0.972043 1.60439e-05 0)
35.219        (0.972043 1.60438e-05 0)
35.22         (0.972043 1.60436e-05 0)
35.221        (0.972043 1.60435e-05 0)
35.222        (0.972044 1.60434e-05 0)
35.223        (0.972044 1.60432e-05 0)
35.224        (0.972044 1.60431e-05 0)
35.225        (0.972044 1.60429e-05 0)
35.226        (0.972044 1.60428e-05 0)
35.227        (0.972044 1.60427e-05 0)
35.228        (0.972045 1.60425e-05 0)
35.229        (0.972045 1.60424e-05 0)
35.23         (0.972045 1.60422e-05 0)
35.231        (0.972045 1.60421e-05 0)
35.232        (0.972045 1.6042e-05 0)
35.233        (0.972046 1.60418e-05 0)
35.234        (0.972046 1.60417e-05 0)
35.235        (0.972046 1.60415e-05 0)
35.236        (0.972046 1.60414e-05 0)
35.237        (0.972046 1.60413e-05 0)
35.238        (0.972046 1.60411e-05 0)
35.239        (0.972047 1.6041e-05 0)
35.24         (0.972047 1.60409e-05 0)
35.241        (0.972047 1.60407e-05 0)
35.242        (0.972047 1.60406e-05 0)
35.243        (0.972047 1.60404e-05 0)
35.244        (0.972047 1.60403e-05 0)
35.245        (0.972048 1.60401e-05 0)
35.246        (0.972048 1.604e-05 0)
35.247        (0.972048 1.60399e-05 0)
35.248        (0.972048 1.60397e-05 0)
35.249        (0.972048 1.60396e-05 0)
35.25         (0.972049 1.60394e-05 0)
35.251        (0.972049 1.60393e-05 0)
35.252        (0.972049 1.60392e-05 0)
35.253        (0.972049 1.6039e-05 0)
35.254        (0.972049 1.60389e-05 0)
35.255        (0.972049 1.60388e-05 0)
35.256        (0.97205 1.60386e-05 0)
35.257        (0.97205 1.60385e-05 0)
35.258        (0.97205 1.60384e-05 0)
35.259        (0.97205 1.60382e-05 0)
35.26         (0.97205 1.60381e-05 0)
35.261        (0.97205 1.60379e-05 0)
35.262        (0.972051 1.60378e-05 0)
35.263        (0.972051 1.60377e-05 0)
35.264        (0.972051 1.60375e-05 0)
35.265        (0.972051 1.60374e-05 0)
35.266        (0.972051 1.60373e-05 0)
35.267        (0.972052 1.60371e-05 0)
35.268        (0.972052 1.6037e-05 0)
35.269        (0.972052 1.60369e-05 0)
35.27         (0.972052 1.60367e-05 0)
35.271        (0.972052 1.60366e-05 0)
35.272        (0.972052 1.60365e-05 0)
35.273        (0.972053 1.60364e-05 0)
35.274        (0.972053 1.60362e-05 0)
35.275        (0.972053 1.60361e-05 0)
35.276        (0.972053 1.6036e-05 0)
35.277        (0.972053 1.60358e-05 0)
35.278        (0.972053 1.60357e-05 0)
35.279        (0.972054 1.60356e-05 0)
35.28         (0.972054 1.60354e-05 0)
35.281        (0.972054 1.60353e-05 0)
35.282        (0.972054 1.60352e-05 0)
35.283        (0.972054 1.60351e-05 0)
35.284        (0.972055 1.60349e-05 0)
35.285        (0.972055 1.60348e-05 0)
35.286        (0.972055 1.60346e-05 0)
35.287        (0.972055 1.60345e-05 0)
35.288        (0.972055 1.60344e-05 0)
35.289        (0.972055 1.60343e-05 0)
35.29         (0.972056 1.60341e-05 0)
35.291        (0.972056 1.6034e-05 0)
35.292        (0.972056 1.60339e-05 0)
35.293        (0.972056 1.60338e-05 0)
35.294        (0.972056 1.60336e-05 0)
35.295        (0.972056 1.60335e-05 0)
35.296        (0.972057 1.60334e-05 0)
35.297        (0.972057 1.60332e-05 0)
35.298        (0.972057 1.60331e-05 0)
35.299        (0.972057 1.6033e-05 0)
35.3          (0.972057 1.60329e-05 0)
35.301        (0.972058 1.60327e-05 0)
35.302        (0.972058 1.60326e-05 0)
35.303        (0.972058 1.60325e-05 0)
35.304        (0.972058 1.60324e-05 0)
35.305        (0.972058 1.60322e-05 0)
35.306        (0.972058 1.60321e-05 0)
35.307        (0.972059 1.6032e-05 0)
35.308        (0.972059 1.60319e-05 0)
35.309        (0.972059 1.60318e-05 0)
35.31         (0.972059 1.60316e-05 0)
35.311        (0.972059 1.60315e-05 0)
35.312        (0.972059 1.60314e-05 0)
35.313        (0.97206 1.60312e-05 0)
35.314        (0.97206 1.60311e-05 0)
35.315        (0.97206 1.6031e-05 0)
35.316        (0.97206 1.60309e-05 0)
35.317        (0.97206 1.60307e-05 0)
35.318        (0.972061 1.60306e-05 0)
35.319        (0.972061 1.60305e-05 0)
35.32         (0.972061 1.60304e-05 0)
35.321        (0.972061 1.60302e-05 0)
35.322        (0.972061 1.60301e-05 0)
35.323        (0.972061 1.603e-05 0)
35.324        (0.972062 1.60299e-05 0)
35.325        (0.972062 1.60298e-05 0)
35.326        (0.972062 1.60296e-05 0)
35.327        (0.972062 1.60295e-05 0)
35.328        (0.972062 1.60294e-05 0)
35.329        (0.972062 1.60293e-05 0)
35.33         (0.972063 1.60291e-05 0)
35.331        (0.972063 1.6029e-05 0)
35.332        (0.972063 1.60289e-05 0)
35.333        (0.972063 1.60287e-05 0)
35.334        (0.972063 1.60286e-05 0)
35.335        (0.972064 1.60285e-05 0)
35.336        (0.972064 1.60284e-05 0)
35.337        (0.972064 1.60282e-05 0)
35.338        (0.972064 1.60281e-05 0)
35.339        (0.972064 1.6028e-05 0)
35.34         (0.972064 1.60279e-05 0)
35.341        (0.972065 1.60277e-05 0)
35.342        (0.972065 1.60276e-05 0)
35.343        (0.972065 1.60275e-05 0)
35.344        (0.972065 1.60274e-05 0)
35.345        (0.972065 1.60272e-05 0)
35.346        (0.972065 1.60271e-05 0)
35.347        (0.972066 1.6027e-05 0)
35.348        (0.972066 1.60269e-05 0)
35.349        (0.972066 1.60267e-05 0)
35.35         (0.972066 1.60266e-05 0)
35.351        (0.972066 1.60265e-05 0)
35.352        (0.972067 1.60264e-05 0)
35.353        (0.972067 1.60262e-05 0)
35.354        (0.972067 1.60261e-05 0)
35.355        (0.972067 1.6026e-05 0)
35.356        (0.972067 1.60259e-05 0)
35.357        (0.972067 1.60257e-05 0)
35.358        (0.972068 1.60256e-05 0)
35.359        (0.972068 1.60255e-05 0)
35.36         (0.972068 1.60254e-05 0)
35.361        (0.972068 1.60252e-05 0)
35.362        (0.972068 1.60251e-05 0)
35.363        (0.972068 1.6025e-05 0)
35.364        (0.972069 1.60248e-05 0)
35.365        (0.972069 1.60247e-05 0)
35.366        (0.972069 1.60246e-05 0)
35.367        (0.972069 1.60245e-05 0)
35.368        (0.972069 1.60243e-05 0)
35.369        (0.972069 1.60242e-05 0)
35.37         (0.97207 1.60241e-05 0)
35.371        (0.97207 1.6024e-05 0)
35.372        (0.97207 1.60238e-05 0)
35.373        (0.97207 1.60237e-05 0)
35.374        (0.97207 1.60236e-05 0)
35.375        (0.972071 1.60234e-05 0)
35.376        (0.972071 1.60233e-05 0)
35.377        (0.972071 1.60232e-05 0)
35.378        (0.972071 1.60231e-05 0)
35.379        (0.972071 1.60229e-05 0)
35.38         (0.972071 1.60228e-05 0)
35.381        (0.972072 1.60227e-05 0)
35.382        (0.972072 1.60226e-05 0)
35.383        (0.972072 1.60224e-05 0)
35.384        (0.972072 1.60223e-05 0)
35.385        (0.972072 1.60222e-05 0)
35.386        (0.972072 1.60221e-05 0)
35.387        (0.972073 1.60219e-05 0)
35.388        (0.972073 1.60218e-05 0)
35.389        (0.972073 1.60217e-05 0)
35.39         (0.972073 1.60216e-05 0)
35.391        (0.972073 1.60214e-05 0)
35.392        (0.972074 1.60213e-05 0)
35.393        (0.972074 1.60212e-05 0)
35.394        (0.972074 1.60211e-05 0)
35.395        (0.972074 1.60209e-05 0)
35.396        (0.972074 1.60208e-05 0)
35.397        (0.972074 1.60207e-05 0)
35.398        (0.972075 1.60205e-05 0)
35.399        (0.972075 1.60204e-05 0)
35.4          (0.972075 1.60203e-05 0)
35.401        (0.972075 1.60202e-05 0)
35.402        (0.972075 1.602e-05 0)
35.403        (0.972075 1.60199e-05 0)
35.404        (0.972076 1.60198e-05 0)
35.405        (0.972076 1.60197e-05 0)
35.406        (0.972076 1.60196e-05 0)
35.407        (0.972076 1.60194e-05 0)
35.408        (0.972076 1.60193e-05 0)
35.409        (0.972077 1.60192e-05 0)
35.41         (0.972077 1.60191e-05 0)
35.411        (0.972077 1.60189e-05 0)
35.412        (0.972077 1.60188e-05 0)
35.413        (0.972077 1.60187e-05 0)
35.414        (0.972077 1.60185e-05 0)
35.415        (0.972078 1.60184e-05 0)
35.416        (0.972078 1.60183e-05 0)
35.417        (0.972078 1.60182e-05 0)
35.418        (0.972078 1.6018e-05 0)
35.419        (0.972078 1.60179e-05 0)
35.42         (0.972078 1.60178e-05 0)
35.421        (0.972079 1.60177e-05 0)
35.422        (0.972079 1.60176e-05 0)
35.423        (0.972079 1.60174e-05 0)
35.424        (0.972079 1.60173e-05 0)
35.425        (0.972079 1.60172e-05 0)
35.426        (0.972079 1.6017e-05 0)
35.427        (0.97208 1.60169e-05 0)
35.428        (0.97208 1.60168e-05 0)
35.429        (0.97208 1.60167e-05 0)
35.43         (0.97208 1.60165e-05 0)
35.431        (0.97208 1.60164e-05 0)
35.432        (0.972081 1.60163e-05 0)
35.433        (0.972081 1.60162e-05 0)
35.434        (0.972081 1.60161e-05 0)
35.435        (0.972081 1.60159e-05 0)
35.436        (0.972081 1.60158e-05 0)
35.437        (0.972081 1.60157e-05 0)
35.438        (0.972082 1.60156e-05 0)
35.439        (0.972082 1.60154e-05 0)
35.44         (0.972082 1.60153e-05 0)
35.441        (0.972082 1.60152e-05 0)
35.442        (0.972082 1.60151e-05 0)
35.443        (0.972082 1.6015e-05 0)
35.444        (0.972083 1.60148e-05 0)
35.445        (0.972083 1.60147e-05 0)
35.446        (0.972083 1.60146e-05 0)
35.447        (0.972083 1.60145e-05 0)
35.448        (0.972083 1.60144e-05 0)
35.449        (0.972084 1.60142e-05 0)
35.45         (0.972084 1.60141e-05 0)
35.451        (0.972084 1.6014e-05 0)
35.452        (0.972084 1.60139e-05 0)
35.453        (0.972084 1.60137e-05 0)
35.454        (0.972084 1.60136e-05 0)
35.455        (0.972085 1.60135e-05 0)
35.456        (0.972085 1.60134e-05 0)
35.457        (0.972085 1.60133e-05 0)
35.458        (0.972085 1.60132e-05 0)
35.459        (0.972085 1.6013e-05 0)
35.46         (0.972085 1.60129e-05 0)
35.461        (0.972086 1.60128e-05 0)
35.462        (0.972086 1.60127e-05 0)
35.463        (0.972086 1.60126e-05 0)
35.464        (0.972086 1.60125e-05 0)
35.465        (0.972086 1.60123e-05 0)
35.466        (0.972086 1.60122e-05 0)
35.467        (0.972087 1.60121e-05 0)
35.468        (0.972087 1.6012e-05 0)
35.469        (0.972087 1.60118e-05 0)
35.47         (0.972087 1.60117e-05 0)
35.471        (0.972087 1.60116e-05 0)
35.472        (0.972088 1.60115e-05 0)
35.473        (0.972088 1.60114e-05 0)
35.474        (0.972088 1.60112e-05 0)
35.475        (0.972088 1.60111e-05 0)
35.476        (0.972088 1.6011e-05 0)
35.477        (0.972088 1.60109e-05 0)
35.478        (0.972089 1.60108e-05 0)
35.479        (0.972089 1.60107e-05 0)
35.48         (0.972089 1.60105e-05 0)
35.481        (0.972089 1.60104e-05 0)
35.482        (0.972089 1.60103e-05 0)
35.483        (0.972089 1.60102e-05 0)
35.484        (0.97209 1.60101e-05 0)
35.485        (0.97209 1.60099e-05 0)
35.486        (0.97209 1.60098e-05 0)
35.487        (0.97209 1.60097e-05 0)
35.488        (0.97209 1.60096e-05 0)
35.489        (0.97209 1.60095e-05 0)
35.49         (0.972091 1.60094e-05 0)
35.491        (0.972091 1.60092e-05 0)
35.492        (0.972091 1.60091e-05 0)
35.493        (0.972091 1.6009e-05 0)
35.494        (0.972091 1.60089e-05 0)
35.495        (0.972092 1.60087e-05 0)
35.496        (0.972092 1.60086e-05 0)
35.497        (0.972092 1.60085e-05 0)
35.498        (0.972092 1.60084e-05 0)
35.499        (0.972092 1.60083e-05 0)
35.5          (0.972092 1.60082e-05 0)
35.501        (0.972093 1.60081e-05 0)
35.502        (0.972093 1.60079e-05 0)
35.503        (0.972093 1.60078e-05 0)
35.504        (0.972093 1.60077e-05 0)
35.505        (0.972093 1.60076e-05 0)
35.506        (0.972093 1.60075e-05 0)
35.507        (0.972094 1.60073e-05 0)
35.508        (0.972094 1.60072e-05 0)
35.509        (0.972094 1.60071e-05 0)
35.51         (0.972094 1.6007e-05 0)
35.511        (0.972094 1.60069e-05 0)
35.512        (0.972095 1.60067e-05 0)
35.513        (0.972095 1.60066e-05 0)
35.514        (0.972095 1.60065e-05 0)
35.515        (0.972095 1.60064e-05 0)
35.516        (0.972095 1.60063e-05 0)
35.517        (0.972095 1.60061e-05 0)
35.518        (0.972096 1.6006e-05 0)
35.519        (0.972096 1.60059e-05 0)
35.52         (0.972096 1.60058e-05 0)
35.521        (0.972096 1.60057e-05 0)
35.522        (0.972096 1.60056e-05 0)
35.523        (0.972096 1.60054e-05 0)
35.524        (0.972097 1.60053e-05 0)
35.525        (0.972097 1.60052e-05 0)
35.526        (0.972097 1.60051e-05 0)
35.527        (0.972097 1.6005e-05 0)
35.528        (0.972097 1.60048e-05 0)
35.529        (0.972097 1.60047e-05 0)
35.53         (0.972098 1.60046e-05 0)
35.531        (0.972098 1.60045e-05 0)
35.532        (0.972098 1.60044e-05 0)
35.533        (0.972098 1.60043e-05 0)
35.534        (0.972098 1.60041e-05 0)
35.535        (0.972099 1.6004e-05 0)
35.536        (0.972099 1.60039e-05 0)
35.537        (0.972099 1.60038e-05 0)
35.538        (0.972099 1.60037e-05 0)
35.539        (0.972099 1.60036e-05 0)
35.54         (0.972099 1.60034e-05 0)
35.541        (0.9721 1.60033e-05 0)
35.542        (0.9721 1.60032e-05 0)
35.543        (0.9721 1.60031e-05 0)
35.544        (0.9721 1.6003e-05 0)
35.545        (0.9721 1.60029e-05 0)
35.546        (0.9721 1.60028e-05 0)
35.547        (0.972101 1.60026e-05 0)
35.548        (0.972101 1.60025e-05 0)
35.549        (0.972101 1.60024e-05 0)
35.55         (0.972101 1.60023e-05 0)
35.551        (0.972101 1.60022e-05 0)
35.552        (0.972101 1.60021e-05 0)
35.553        (0.972102 1.60019e-05 0)
35.554        (0.972102 1.60018e-05 0)
35.555        (0.972102 1.60017e-05 0)
35.556        (0.972102 1.60016e-05 0)
35.557        (0.972102 1.60015e-05 0)
35.558        (0.972103 1.60014e-05 0)
35.559        (0.972103 1.60012e-05 0)
35.56         (0.972103 1.60011e-05 0)
35.561        (0.972103 1.6001e-05 0)
35.562        (0.972103 1.60009e-05 0)
35.563        (0.972103 1.60008e-05 0)
35.564        (0.972104 1.60007e-05 0)
35.565        (0.972104 1.60006e-05 0)
35.566        (0.972104 1.60004e-05 0)
35.567        (0.972104 1.60003e-05 0)
35.568        (0.972104 1.60002e-05 0)
35.569        (0.972104 1.60001e-05 0)
35.57         (0.972105 1.6e-05 0)
35.571        (0.972105 1.59999e-05 0)
35.572        (0.972105 1.59997e-05 0)
35.573        (0.972105 1.59996e-05 0)
35.574        (0.972105 1.59995e-05 0)
35.575        (0.972105 1.59994e-05 0)
35.576        (0.972106 1.59993e-05 0)
35.577        (0.972106 1.59992e-05 0)
35.578        (0.972106 1.59991e-05 0)
35.579        (0.972106 1.5999e-05 0)
35.58         (0.972106 1.59988e-05 0)
35.581        (0.972106 1.59987e-05 0)
35.582        (0.972107 1.59986e-05 0)
35.583        (0.972107 1.59985e-05 0)
35.584        (0.972107 1.59984e-05 0)
35.585        (0.972107 1.59983e-05 0)
35.586        (0.972107 1.59982e-05 0)
35.587        (0.972108 1.59981e-05 0)
35.588        (0.972108 1.5998e-05 0)
35.589        (0.972108 1.59978e-05 0)
35.59         (0.972108 1.59977e-05 0)
35.591        (0.972108 1.59976e-05 0)
35.592        (0.972108 1.59975e-05 0)
35.593        (0.972109 1.59974e-05 0)
35.594        (0.972109 1.59973e-05 0)
35.595        (0.972109 1.59972e-05 0)
35.596        (0.972109 1.59971e-05 0)
35.597        (0.972109 1.59969e-05 0)
35.598        (0.972109 1.59968e-05 0)
35.599        (0.97211 1.59967e-05 0)
35.6          (0.97211 1.59966e-05 0)
35.601        (0.97211 1.59965e-05 0)
35.602        (0.97211 1.59964e-05 0)
35.603        (0.97211 1.59963e-05 0)
35.604        (0.97211 1.59962e-05 0)
35.605        (0.972111 1.59961e-05 0)
35.606        (0.972111 1.59959e-05 0)
35.607        (0.972111 1.59958e-05 0)
35.608        (0.972111 1.59957e-05 0)
35.609        (0.972111 1.59956e-05 0)
35.61         (0.972112 1.59955e-05 0)
35.611        (0.972112 1.59954e-05 0)
35.612        (0.972112 1.59953e-05 0)
35.613        (0.972112 1.59952e-05 0)
35.614        (0.972112 1.5995e-05 0)
35.615        (0.972112 1.59949e-05 0)
35.616        (0.972113 1.59948e-05 0)
35.617        (0.972113 1.59947e-05 0)
35.618        (0.972113 1.59946e-05 0)
35.619        (0.972113 1.59945e-05 0)
35.62         (0.972113 1.59944e-05 0)
35.621        (0.972113 1.59943e-05 0)
35.622        (0.972114 1.59942e-05 0)
35.623        (0.972114 1.5994e-05 0)
35.624        (0.972114 1.59939e-05 0)
35.625        (0.972114 1.59938e-05 0)
35.626        (0.972114 1.59937e-05 0)
35.627        (0.972114 1.59936e-05 0)
35.628        (0.972115 1.59935e-05 0)
35.629        (0.972115 1.59934e-05 0)
35.63         (0.972115 1.59933e-05 0)
35.631        (0.972115 1.59932e-05 0)
35.632        (0.972115 1.5993e-05 0)
35.633        (0.972115 1.59929e-05 0)
35.634        (0.972116 1.59928e-05 0)
35.635        (0.972116 1.59927e-05 0)
35.636        (0.972116 1.59926e-05 0)
35.637        (0.972116 1.59925e-05 0)
35.638        (0.972116 1.59924e-05 0)
35.639        (0.972117 1.59923e-05 0)
35.64         (0.972117 1.59922e-05 0)
35.641        (0.972117 1.59921e-05 0)
35.642        (0.972117 1.59919e-05 0)
35.643        (0.972117 1.59918e-05 0)
35.644        (0.972117 1.59917e-05 0)
35.645        (0.972118 1.59916e-05 0)
35.646        (0.972118 1.59915e-05 0)
35.647        (0.972118 1.59914e-05 0)
35.648        (0.972118 1.59913e-05 0)
35.649        (0.972118 1.59912e-05 0)
35.65         (0.972118 1.59911e-05 0)
35.651        (0.972119 1.59909e-05 0)
35.652        (0.972119 1.59908e-05 0)
35.653        (0.972119 1.59907e-05 0)
35.654        (0.972119 1.59906e-05 0)
35.655        (0.972119 1.59905e-05 0)
35.656        (0.972119 1.59904e-05 0)
35.657        (0.97212 1.59903e-05 0)
35.658        (0.97212 1.59902e-05 0)
35.659        (0.97212 1.59901e-05 0)
35.66         (0.97212 1.599e-05 0)
35.661        (0.97212 1.59898e-05 0)
35.662        (0.97212 1.59897e-05 0)
35.663        (0.972121 1.59896e-05 0)
35.664        (0.972121 1.59895e-05 0)
35.665        (0.972121 1.59894e-05 0)
35.666        (0.972121 1.59893e-05 0)
35.667        (0.972121 1.59892e-05 0)
35.668        (0.972122 1.59891e-05 0)
35.669        (0.972122 1.5989e-05 0)
35.67         (0.972122 1.59889e-05 0)
35.671        (0.972122 1.59887e-05 0)
35.672        (0.972122 1.59886e-05 0)
35.673        (0.972122 1.59885e-05 0)
35.674        (0.972123 1.59884e-05 0)
35.675        (0.972123 1.59883e-05 0)
35.676        (0.972123 1.59882e-05 0)
35.677        (0.972123 1.59881e-05 0)
35.678        (0.972123 1.5988e-05 0)
35.679        (0.972123 1.59879e-05 0)
35.68         (0.972124 1.59878e-05 0)
35.681        (0.972124 1.59877e-05 0)
35.682        (0.972124 1.59876e-05 0)
35.683        (0.972124 1.59874e-05 0)
35.684        (0.972124 1.59873e-05 0)
35.685        (0.972124 1.59872e-05 0)
35.686        (0.972125 1.59871e-05 0)
35.687        (0.972125 1.5987e-05 0)
35.688        (0.972125 1.59869e-05 0)
35.689        (0.972125 1.59868e-05 0)
35.69         (0.972125 1.59867e-05 0)
35.691        (0.972125 1.59866e-05 0)
35.692        (0.972126 1.59865e-05 0)
35.693        (0.972126 1.59864e-05 0)
35.694        (0.972126 1.59863e-05 0)
35.695        (0.972126 1.59862e-05 0)
35.696        (0.972126 1.5986e-05 0)
35.697        (0.972127 1.59859e-05 0)
35.698        (0.972127 1.59858e-05 0)
35.699        (0.972127 1.59857e-05 0)
35.7          (0.972127 1.59856e-05 0)
35.701        (0.972127 1.59855e-05 0)
35.702        (0.972127 1.59854e-05 0)
35.703        (0.972128 1.59853e-05 0)
35.704        (0.972128 1.59852e-05 0)
35.705        (0.972128 1.59851e-05 0)
35.706        (0.972128 1.5985e-05 0)
35.707        (0.972128 1.59849e-05 0)
35.708        (0.972128 1.59848e-05 0)
35.709        (0.972129 1.59847e-05 0)
35.71         (0.972129 1.59846e-05 0)
35.711        (0.972129 1.59844e-05 0)
35.712        (0.972129 1.59843e-05 0)
35.713        (0.972129 1.59842e-05 0)
35.714        (0.972129 1.59841e-05 0)
35.715        (0.97213 1.5984e-05 0)
35.716        (0.97213 1.59839e-05 0)
35.717        (0.97213 1.59838e-05 0)
35.718        (0.97213 1.59837e-05 0)
35.719        (0.97213 1.59836e-05 0)
35.72         (0.97213 1.59835e-05 0)
35.721        (0.972131 1.59834e-05 0)
35.722        (0.972131 1.59833e-05 0)
35.723        (0.972131 1.59832e-05 0)
35.724        (0.972131 1.59831e-05 0)
35.725        (0.972131 1.5983e-05 0)
35.726        (0.972131 1.59829e-05 0)
35.727        (0.972132 1.59828e-05 0)
35.728        (0.972132 1.59827e-05 0)
35.729        (0.972132 1.59826e-05 0)
35.73         (0.972132 1.59824e-05 0)
35.731        (0.972132 1.59824e-05 0)
35.732        (0.972133 1.59822e-05 0)
35.733        (0.972133 1.59821e-05 0)
35.734        (0.972133 1.5982e-05 0)
35.735        (0.972133 1.59819e-05 0)
35.736        (0.972133 1.59818e-05 0)
35.737        (0.972133 1.59817e-05 0)
35.738        (0.972134 1.59816e-05 0)
35.739        (0.972134 1.59815e-05 0)
35.74         (0.972134 1.59814e-05 0)
35.741        (0.972134 1.59813e-05 0)
35.742        (0.972134 1.59812e-05 0)
35.743        (0.972134 1.59811e-05 0)
35.744        (0.972135 1.5981e-05 0)
35.745        (0.972135 1.59809e-05 0)
35.746        (0.972135 1.59808e-05 0)
35.747        (0.972135 1.59807e-05 0)
35.748        (0.972135 1.59806e-05 0)
35.749        (0.972135 1.59805e-05 0)
35.75         (0.972136 1.59804e-05 0)
35.751        (0.972136 1.59803e-05 0)
35.752        (0.972136 1.59802e-05 0)
35.753        (0.972136 1.59801e-05 0)
35.754        (0.972136 1.598e-05 0)
35.755        (0.972136 1.59799e-05 0)
35.756        (0.972137 1.59798e-05 0)
35.757        (0.972137 1.59797e-05 0)
35.758        (0.972137 1.59795e-05 0)
35.759        (0.972137 1.59794e-05 0)
35.76         (0.972137 1.59794e-05 0)
35.761        (0.972137 1.59792e-05 0)
35.762        (0.972138 1.59791e-05 0)
35.763        (0.972138 1.5979e-05 0)
35.764        (0.972138 1.59789e-05 0)
35.765        (0.972138 1.59788e-05 0)
35.766        (0.972138 1.59787e-05 0)
35.767        (0.972138 1.59786e-05 0)
35.768        (0.972139 1.59785e-05 0)
35.769        (0.972139 1.59784e-05 0)
35.77         (0.972139 1.59783e-05 0)
35.771        (0.972139 1.59782e-05 0)
35.772        (0.972139 1.59781e-05 0)