/*--------------------------------*- C++ -*----------------------------------*\
| =========                 |                                                 |
| \\      /  F ield         | OpenFOAM: The Open Source CFD Toolbox           |
|  \\    /   O peration     | Version:  2412                                  |
|   \\  /    A nd           | Website:  www.openfoam.com                      |
|    \\/     M anipulation  |                                                 |
\*---------------------------------------------------------------------------*/
FoamFile
{
    version     2.0;
    format      ascii;
    arch        "LSB;label=32;scalar=64";
    class       surfaceScalarField;
    location    "2";
    object      phi;
}
// * * * * * * * * * * * * * * * * * * * * * * * * * * * * * * * * * * * * * //

dimensions      [0 3 -1 0 0 0 0];

oriented        oriented;

internalField   nonuniform List<scalar> 
128184
(
5.24222e-08
-5.24222e-08
-3.78549e-16
8.99279e-08
-3.75057e-08
1.03072e-07
-1.31439e-08
9.94313e-08
3.64047e-09
8.89908e-08
1.04405e-08
7.75526e-08
1.14382e-08
6.74878e-08
1.00649e-08
5.96443e-08
7.84347e-09
5.32765e-08
6.3678e-09
4.84971e-08
4.77939e-09
4.51276e-08
3.36954e-09
4.23496e-08
2.778e-09
4.02542e-08
2.09541e-09
3.90562e-08
1.19793e-09
3.78315e-08
1.22476e-09
3.71093e-08
7.22206e-10
3.66408e-08
4.68465e-10
3.64273e-08
2.13509e-10
3.64171e-08
1.01322e-11
3.64246e-08
-7.44107e-12
3.65567e-08
-1.32134e-10
3.69672e-08
-4.10478e-10
3.72297e-08
-2.62543e-10
3.77903e-08
-5.60518e-10
3.82437e-08
-4.53405e-10
3.88335e-08
-5.89877e-10
3.94128e-08
-5.79258e-10
4.01311e-08
-7.18345e-10
4.08996e-08
-7.68493e-10
4.14179e-08
-5.18228e-10
4.23484e-08
-9.30496e-10
4.30037e-08
-6.55377e-10
4.36444e-08
-6.40691e-10
4.44254e-08
-7.80917e-10
4.5175e-08
-7.49699e-10
4.59331e-08
-7.58074e-10
4.67263e-08
-7.93192e-10
4.73528e-08
-6.26525e-10
4.82837e-08
-9.30892e-10
4.89049e-08
-6.21119e-10
4.95231e-08
-6.18202e-10
5.03724e-08
-8.49328e-10
5.0883e-08
-5.10642e-10
5.14955e-08
-6.12442e-10
5.21972e-08
-7.01699e-10
5.28013e-08
-6.04133e-10
5.33031e-08
-5.01768e-10
5.39187e-08
-6.15678e-10
5.44087e-08
-4.89966e-10
5.48163e-08
-4.07615e-10
5.53348e-08
-5.18484e-10
5.57331e-08
-3.98267e-10
5.61028e-08
-3.69737e-10
5.63452e-08
-2.42359e-10
5.66499e-08
-3.04779e-10
5.69898e-08
-3.39819e-10
5.73209e-08
-3.31152e-10
5.74536e-08
-1.32642e-10
5.7416e-08
3.7594e-11
5.7667e-08
-2.51069e-10
5.77503e-08
-8.32317e-11
5.763e-08
1.203e-10
5.7646e-08
-1.60477e-11
5.76753e-08
-2.9327e-11
5.75121e-08
1.63272e-10
5.72443e-08
2.67733e-10
5.70229e-08
2.21456e-10
5.68069e-08
2.16027e-10
5.66023e-08
2.04588e-10
5.62407e-08
3.61582e-10
5.58389e-08
4.01795e-10
5.5462e-08
3.76922e-10
5.50488e-08
4.13135e-10
5.44831e-08
5.65708e-10
5.39345e-08
5.48626e-10
5.33795e-08
5.54983e-10
5.28284e-08
5.511e-10
5.21875e-08
6.40874e-10
5.14243e-08
7.63283e-10
7.42261e-10
5.0682e-08
8.88819e-08
-1.41304e-07
2.69591e-16
1.61103e-07
-1.09727e-07
2.10753e-07
-6.27935e-08
2.34873e-07
-2.04798e-08
2.38026e-07
7.28822e-09
2.31159e-07
1.83049e-08
2.19285e-07
2.19389e-08
2.06516e-07
2.06121e-08
1.93966e-07
1.89181e-08
1.82948e-07
1.57973e-08
1.74111e-07
1.22065e-08
1.66584e-07
1.03054e-08
1.604e-07
8.27886e-09
1.55944e-07
5.65408e-09
1.52081e-07
5.08789e-09
1.49201e-07
3.60186e-09
1.4706e-07
2.60973e-09
1.45598e-07
1.67534e-09
1.44697e-07
9.11414e-10
1.44084e-07
6.05333e-10
1.43733e-07
2.18995e-10
1.44032e-07
-7.09373e-10
1.44258e-07
-4.8887e-10
1.45018e-07
-1.32056e-09
1.45773e-07
-1.20772e-09
1.46723e-07
-1.54001e-09
1.47744e-07
-1.60085e-09
1.48966e-07
-1.93972e-09
1.50338e-07
-2.14062e-09
1.51477e-07
-1.65715e-09
1.53019e-07
-2.47254e-09
1.5438e-07
-2.01697e-09
1.55661e-07
-1.92179e-09
1.57071e-07
-2.19081e-09
1.58484e-07
-2.16203e-09
1.59908e-07
-2.1825e-09
1.61376e-07
-2.26098e-09
1.62645e-07
-1.89524e-09
1.64217e-07
-2.50374e-09
1.65486e-07
-1.89007e-09
1.66657e-07
-1.78847e-09
1.68056e-07
-2.24831e-09
1.69089e-07
-1.54391e-09
1.70142e-07
-1.66508e-09
1.71277e-07
-1.83738e-09
1.72299e-07
-1.62583e-09
1.73161e-07
-1.36364e-09
1.74096e-07
-1.55062e-09
1.74865e-07
-1.25907e-09
1.75488e-07
-1.03084e-09
1.76179e-07
-1.20899e-09
1.76708e-07
-9.27621e-10
1.77144e-07
-8.05843e-10
1.77391e-07
-4.88887e-10
1.77647e-07
-5.60834e-10
1.77916e-07
-6.08927e-10
1.78132e-07
-5.47302e-10
1.78101e-07
-1.01583e-10
1.77788e-07
3.50292e-10
1.77726e-07
-1.88623e-10
1.77464e-07
1.78038e-10
1.76888e-07
6.96549e-10
1.76426e-07
4.46344e-10
1.7594e-07
4.56038e-10
1.75168e-07
9.35558e-10
1.74207e-07
1.229e-09
1.73246e-07
1.18237e-09
1.7226e-07
1.20183e-09
1.7125e-07
1.21426e-09
1.70015e-07
1.59677e-09
1.68681e-07
1.73657e-09
1.67325e-07
1.73248e-09
1.65878e-07
1.85974e-09
1.64209e-07
2.23548e-09
1.6251e-07
2.24753e-09
1.60768e-07
2.29639e-09
1.58992e-07
2.32715e-09
1.57069e-07
2.5644e-09
1.54961e-07
2.87114e-09
2.87958e-09
1.52823e-07
9.28109e-08
-2.34115e-07
4.04072e-16
1.75587e-07
-1.92504e-07
2.41938e-07
-1.29144e-07
2.88915e-07
-6.7457e-08
3.15566e-07
-1.93626e-08
3.23389e-07
1.04813e-08
3.222e-07
2.31285e-08
3.154e-07
2.74121e-08
3.05467e-07
2.88511e-08
2.94805e-07
2.64588e-08
2.85026e-07
2.19858e-08
2.76117e-07
1.92141e-08
2.68407e-07
1.59886e-08
2.62466e-07
1.15951e-08
2.57354e-07
1.02001e-08
2.53434e-07
7.5225e-09
2.50472e-07
5.57163e-09
2.48415e-07
3.73196e-09
2.4715e-07
2.17629e-09
2.46385e-07
1.37025e-09
2.46038e-07
5.66467e-10
2.46426e-07
-1.09729e-09
2.46934e-07
-9.96908e-10
2.48044e-07
-2.43121e-09
2.49265e-07
-2.42814e-09
2.50751e-07
-3.0259e-09
2.52358e-07
-3.20788e-09
2.54224e-07
-3.80558e-09
2.56278e-07
-4.19485e-09
2.58127e-07
-3.5068e-09
2.60413e-07
-4.7583e-09
2.62524e-07
-4.12726e-09
2.64567e-07
-3.96551e-09
2.66727e-07
-4.35036e-09
2.68875e-07
-4.3105e-09
2.71038e-07
-4.34487e-09
2.73229e-07
-4.45236e-09
2.7522e-07
-3.88616e-09
2.77488e-07
-4.77229e-09
2.7943e-07
-3.8314e-09
2.81262e-07
-3.62061e-09
2.83273e-07
-4.2591e-09
2.84889e-07
-3.16039e-09
2.86488e-07
-3.26425e-09
2.88122e-07
-3.47146e-09
2.89609e-07
-3.11277e-09
2.90901e-07
-2.65502e-09
2.9222e-07
-2.87016e-09
2.93331e-07
-2.36994e-09
2.94248e-07
-1.94723e-09
2.95182e-07
-2.14319e-09
2.95907e-07
-1.65301e-09
2.96493e-07
-1.39154e-09
2.96825e-07
-8.21428e-10
2.97114e-07
-8.49297e-10
2.97368e-07
-8.62651e-10
2.97531e-07
-7.11163e-10
2.97375e-07
5.48512e-11
2.96889e-07
8.36285e-10
2.96595e-07
1.05187e-10
2.96018e-07
7.55552e-10
2.95121e-07
1.59331e-09
2.94241e-07
1.32623e-09
2.93279e-07
1.41815e-09
2.91998e-07
2.21668e-09
2.90467e-07
2.75962e-09
2.88867e-07
2.78269e-09
2.87185e-07
2.88371e-09
2.85424e-07
2.97481e-09
2.83395e-07
3.62628e-09
2.81211e-07
3.92045e-09
2.78948e-07
3.99566e-09
2.76539e-07
4.2689e-09
2.73859e-07
4.91562e-09
2.71095e-07
5.01142e-09
2.68238e-07
5.15353e-09
2.65295e-07
5.26938e-09
2.6216e-07
5.7002e-09
2.58797e-07
6.23361e-09
6.32878e-09
2.55348e-07
8.48972e-08
-3.19012e-07
4.0733e-17
1.65067e-07
-2.72673e-07
2.36287e-07
-2.00364e-07
2.94715e-07
-1.25885e-07
3.39346e-07
-6.39941e-08
3.67541e-07
-1.77137e-08
3.80359e-07
1.03109e-08
3.85451e-07
2.23203e-08
3.84437e-07
2.9865e-08
3.79778e-07
3.11174e-08
3.73675e-07
2.80886e-08
3.67002e-07
2.58874e-08
3.60577e-07
2.24137e-08
3.55271e-07
1.69013e-08
3.50577e-07
1.48941e-08
3.46919e-07
1.11803e-08
3.44177e-07
8.31412e-09
3.4234e-07
5.56831e-09
3.41339e-07
3.17721e-09
3.40955e-07
1.75455e-09
3.41043e-07
4.78446e-10
3.41961e-07
-2.01566e-09
3.43093e-07
-2.12823e-09
3.4478e-07
-4.1183e-09
3.46679e-07
-4.32705e-09
3.48871e-07
-5.21862e-09
3.51233e-07
-5.56986e-09
3.5387e-07
-6.44179e-09
3.56716e-07
-7.04118e-09
3.59411e-07
-6.20178e-09
3.62513e-07
-7.86034e-09
3.65478e-07
-7.09231e-09
3.68386e-07
-6.87347e-09
3.71389e-07
-7.35299e-09
3.74366e-07
-7.28835e-09
3.77345e-07
-7.32293e-09
3.80335e-07
-7.44276e-09
3.83122e-07
-6.67284e-09
3.8614e-07
-7.79104e-09
3.88832e-07
-6.52266e-09
3.91392e-07
-6.18069e-09
3.94081e-07
-6.94888e-09
3.96363e-07
-5.4418e-09
3.9859e-07
-5.49129e-09
4.008e-07
-5.68177e-09
4.02827e-07
-5.13906e-09
4.04626e-07
-4.45451e-09
4.06403e-07
-4.64731e-09
4.07934e-07
-3.90043e-09
4.09231e-07
-3.24437e-09
4.10488e-07
-3.40088e-09
4.11494e-07
-2.65899e-09
4.12314e-07
-2.21104e-09
4.12837e-07
-1.34452e-09
4.13255e-07
-1.26727e-09
4.13579e-07
-1.18668e-09
4.13763e-07
-8.95394e-10
4.13574e-07
2.43669e-10
4.1304e-07
1.37113e-09
4.1258e-07
5.64514e-10
4.11828e-07
1.50749e-09
4.10695e-07
2.72664e-09
4.09518e-07
2.50368e-09
4.08197e-07
2.73923e-09
4.06508e-07
3.90541e-09
4.0452e-07
4.74777e-09
4.024e-07
4.90272e-09
4.00136e-07
5.14683e-09
3.97736e-07
5.37512e-09
3.95018e-07
6.34443e-09
3.92093e-07
6.84555e-09
3.89032e-07
7.05666e-09
3.85771e-07
7.52992e-09
3.8219e-07
8.49602e-09
3.78473e-07
8.72928e-09
3.74608e-07
9.0185e-09
3.70605e-07
9.27199e-09
3.66361e-07
9.94377e-09
3.61849e-07
1.07463e-08
1.09768e-08
3.57201e-07
7.42579e-08
-3.9327e-07
-2.84168e-16
1.46711e-07
-3.45127e-07
2.15345e-07
-2.68998e-07
2.77331e-07
-1.87871e-07
3.3011e-07
-1.16774e-07
3.72494e-07
-6.00969e-08
4.02357e-07
-1.95525e-08
4.18923e-07
5.75405e-09
4.29294e-07
1.94944e-08
4.34137e-07
2.62746e-08
4.3536e-07
2.68655e-08
4.34216e-07
2.70307e-08
4.31873e-07
2.47572e-08
4.29472e-07
1.93018e-08
4.2705e-07
1.73167e-08
4.25153e-07
1.30775e-08
4.23858e-07
9.60889e-09
4.23235e-07
6.19085e-09
4.23318e-07
3.09461e-09
4.2395e-07
1.12226e-09
4.25126e-07
-6.97484e-10
4.27028e-07
-3.9178e-09
4.29155e-07
-4.25492e-09
4.31798e-07
-6.76168e-09
4.34665e-07
-7.19322e-09
4.37826e-07
-8.38029e-09
4.41172e-07
-8.91528e-09
4.44781e-07
-1.0051e-08
4.48592e-07
-1.08519e-08
4.52289e-07
-9.89905e-09
4.5635e-07
-1.19218e-08
4.60297e-07
-1.10386e-08
4.64193e-07
-1.07698e-08
4.6816e-07
-1.13204e-08
4.72084e-07
-1.12123e-08
4.75987e-07
-1.12256e-08
4.79877e-07
-1.13326e-08
4.8356e-07
-1.0356e-08
4.87417e-07
-1.16482e-08
4.9095e-07
-1.00554e-08
4.9433e-07
-9.56113e-09
4.97786e-07
-1.04048e-08
5.00832e-07
-8.48725e-09
5.03784e-07
-8.44309e-09
5.06668e-07
-8.56659e-09
5.09334e-07
-7.80486e-09
5.11743e-07
-6.86315e-09
5.14077e-07
-6.9817e-09
5.16131e-07
-5.95444e-09
5.17917e-07
-5.02989e-09
5.19606e-07
-5.09061e-09
5.21005e-07
-4.05757e-09
5.22173e-07
-3.37894e-09
5.23007e-07
-2.17905e-09
5.23679e-07
-1.93895e-09
5.24196e-07
-1.7033e-09
5.24515e-07
-1.21413e-09
5.24436e-07
3.22223e-10
5.23964e-07
1.84319e-09
5.23506e-07
1.02287e-09
5.22701e-07
2.31252e-09
5.21474e-07
3.953e-09
5.20141e-07
3.83707e-09
5.18604e-07
4.27558e-09
5.16656e-07
5.85397e-09
5.14361e-07
7.04286e-09
5.11875e-07
7.38896e-09
5.09185e-07
7.83629e-09
5.06299e-07
8.26165e-09
5.03046e-07
9.59741e-09
4.99533e-07
1.03585e-08
4.95827e-07
1.07622e-08
4.91868e-07
1.1489e-08
4.87543e-07
1.28215e-08
4.83025e-07
1.32467e-08
4.78306e-07
1.37377e-08
4.73395e-07
1.41828e-08
4.68195e-07
1.51443e-08
4.62682e-07
1.62594e-08
1.66735e-08
4.56985e-07
6.44859e-08
-4.57756e-07
-2.97772e-16
1.28555e-07
-4.09196e-07
1.91555e-07
-3.31998e-07
2.51856e-07
-2.48171e-07
3.07358e-07
-1.72276e-07
3.55739e-07
-1.08478e-07
3.95652e-07
-5.94651e-08
4.27345e-07
-2.59396e-08
4.46794e-07
4.55079e-11
4.61082e-07
1.19866e-08
4.70776e-07
1.71717e-08
4.77005e-07
2.08023e-08
4.80726e-07
2.10358e-08
4.83074e-07
1.69537e-08
4.84507e-07
1.58837e-08
4.85685e-07
1.18997e-08
4.86921e-07
8.37296e-09
4.88489e-07
4.62296e-09
4.90352e-07
1.23105e-09
4.92752e-07
-1.27741e-09
4.95707e-07
-3.65206e-09
4.99004e-07
-7.21563e-09
5.0252e-07
-7.77017e-09
5.06451e-07
-1.06934e-08
5.1058e-07
-1.13222e-08
5.14967e-07
-1.27675e-08
5.19522e-07
-1.34696e-08
5.24304e-07
-1.4833e-08
5.29255e-07
-1.58035e-08
5.34113e-07
-1.47572e-08
5.39275e-07
-1.70831e-08
5.4433e-07
-1.60943e-08
5.49333e-07
-1.57719e-08
5.54377e-07
-1.63645e-08
5.59357e-07
-1.61925e-08
5.6429e-07
-1.61583e-08
5.69179e-07
-1.62223e-08
5.73858e-07
-1.50349e-08
5.78647e-07
-1.64372e-08
5.83115e-07
-1.45236e-08
5.8741e-07
-1.38558e-08
5.91724e-07
-1.47188e-08
5.95632e-07
-1.23952e-08
5.99407e-07
-1.22187e-08
6.03069e-07
-1.22282e-08
6.06481e-07
-1.12172e-08
6.09609e-07
-9.99098e-09
6.12612e-07
-9.98442e-09
6.15306e-07
-8.64809e-09
6.17699e-07
-7.42374e-09
6.19944e-07
-7.33531e-09
6.21864e-07
-5.97724e-09
6.23512e-07
-5.02712e-09
6.24796e-07
-3.46257e-09
6.25864e-07
-3.00697e-09
6.2672e-07
-2.55958e-09
6.27322e-07
-1.81601e-09
6.27508e-07
1.35971e-10
6.2726e-07
2.09082e-09
6.26959e-07
1.32403e-09
6.26267e-07
3.00428e-09
6.2512e-07
5.10031e-09
6.23803e-07
5.15406e-09
6.22227e-07
5.85158e-09
6.20201e-07
7.88055e-09
6.17784e-07
9.45935e-09
6.15119e-07
1.00537e-08
6.12194e-07
1.07615e-08
6.09014e-07
1.14422e-08
6.05421e-07
1.31896e-08
6.01517e-07
1.4263e-08
5.97363e-07
1.49159e-08
5.92903e-07
1.59488e-08
5.88033e-07
1.76923e-08
5.82915e-07
1.83646e-08
5.7754e-07
1.91121e-08
5.7192e-07
1.98034e-08
5.65961e-07
2.11032e-08
5.59645e-07
2.25755e-08
2.3223e-08
5.53095e-07
5.65161e-08
-5.14272e-07
-1.13639e-16
1.13167e-07
-4.65847e-07
1.69962e-07
-3.88792e-07
2.26158e-07
-3.04367e-07
2.80447e-07
-2.26565e-07
3.30929e-07
-1.5896e-07
3.7575e-07
-1.04286e-07
4.13548e-07
-6.37376e-08
4.45321e-07
-3.17275e-08
4.68167e-07
-1.08594e-08
4.84909e-07
4.30182e-10
4.98066e-07
7.64465e-09
5.08214e-07
1.08877e-08
5.16145e-07
9.0227e-09
5.22425e-07
9.60418e-09
5.27741e-07
6.58339e-09
5.3246e-07
3.65442e-09
5.36652e-07
4.30597e-10
5.41406e-07
-3.52314e-09
5.4627e-07
-6.14108e-09
5.51142e-07
-8.52445e-09
5.56282e-07
-1.2355e-08
5.61492e-07
-1.29807e-08
5.66994e-07
-1.61948e-08
5.72633e-07
-1.69621e-08
5.78459e-07
-1.85926e-08
5.84406e-07
-1.94168e-08
5.90522e-07
-2.09488e-08
5.96757e-07
-2.20388e-08
6.02903e-07
-2.09035e-08
6.09275e-07
-2.3455e-08
6.15542e-07
-2.2361e-08
6.21741e-07
-2.19715e-08
6.27947e-07
-2.25701e-08
6.34066e-07
-2.23119e-08
6.4011e-07
-2.22017e-08
6.46078e-07
-2.21902e-08
6.5183e-07
-2.07877e-08
6.57626e-07
-2.22332e-08
6.63108e-07
-2.00057e-08
6.68396e-07
-1.91431e-08
6.73646e-07
-1.99691e-08
6.78501e-07
-1.72497e-08
6.83186e-07
-1.69043e-08
6.87715e-07
-1.67567e-08
6.9197e-07
-1.54722e-08
6.95918e-07
-1.39397e-08
6.99695e-07
-1.37605e-08
7.03139e-07
-1.20927e-08
7.06258e-07
-1.05429e-08
7.09179e-07
-1.02561e-08
7.11748e-07
-8.54625e-09
7.1401e-07
-7.28914e-09
7.15883e-07
-5.33569e-09
7.17494e-07
-4.61793e-09
7.18845e-07
-3.91068e-09
7.19901e-07
-2.87162e-09
7.20491e-07
-4.53756e-10
7.2065e-07
1.93145e-09
7.20679e-07
1.29515e-09
7.20282e-07
3.40113e-09
7.19403e-07
5.97895e-09
7.18295e-07
6.2629e-09
7.16876e-07
7.27063e-09
7.14975e-07
9.78114e-09
7.12646e-07
1.17882e-08
7.10015e-07
1.26848e-08
7.0707e-07
1.37063e-08
7.03815e-07
1.46969e-08
7.00109e-07
1.68957e-08
6.96041e-07
1.8331e-08
6.91669e-07
1.92885e-08
6.8694e-07
2.06773e-08
6.8176e-07
2.28727e-08
6.76278e-07
2.38467e-08
6.70485e-07
2.49048e-08
6.64392e-07
2.58962e-08
6.57914e-07
2.75816e-08
6.51034e-07
2.94556e-08
3.03877e-08
6.43869e-07
5.02494e-08
-5.64521e-07
2.00643e-16
1.00809e-07
-5.16406e-07
1.51951e-07
-4.39935e-07
2.03453e-07
-3.5587e-07
2.5465e-07
-2.77762e-07
3.04258e-07
-2.08568e-07
3.50674e-07
-1.50702e-07
3.92382e-07
-1.05445e-07
4.28542e-07
-6.78879e-08
4.58891e-07
-4.1209e-08
4.84168e-07
-2.48467e-08
5.0388e-07
-1.20673e-08
5.1931e-07
-4.54209e-09
5.32547e-07
-4.21458e-09
5.43264e-07
-1.11266e-09
5.52643e-07
-2.79522e-09
5.61227e-07
-4.92975e-09
5.69484e-07
-7.82627e-09
5.77048e-07
-1.10874e-08
5.84389e-07
-1.34819e-08
5.91529e-07
-1.56642e-08
5.98676e-07
-1.95027e-08
6.05783e-07
-2.00876e-08
6.1303e-07
-2.34411e-08
6.20322e-07
-2.42541e-08
6.27704e-07
-2.59746e-08
6.35143e-07
-2.68566e-08
6.42677e-07
-2.84825e-08
6.50269e-07
-2.96309e-08
6.57765e-07
-2.8399e-08
6.65399e-07
-3.10899e-08
6.72923e-07
-2.98842e-08
6.80359e-07
-2.94074e-08
6.8776e-07
-2.99719e-08
6.95053e-07
-2.96046e-08
7.02241e-07
-2.93895e-08
7.09322e-07
-2.9271e-08
7.16184e-07
-2.76496e-08
7.23024e-07
-2.90738e-08
7.29561e-07
-2.65424e-08
7.35884e-07
-2.54659e-08
7.42116e-07
-2.62014e-08
7.47969e-07
-2.31019e-08
7.53619e-07
-2.2555e-08
7.59075e-07
-2.22126e-08
7.6424e-07
-2.0637e-08
7.69084e-07
-1.87834e-08
7.73713e-07
-1.83895e-08
7.77995e-07
-1.63754e-08
7.81934e-07
-1.44816e-08
7.85631e-07
-1.39534e-08
7.88958e-07
-1.18731e-08
7.9195e-07
-1.02808e-08
7.94536e-07
-7.92215e-09
7.96821e-07
-6.90254e-09
7.98804e-07
-5.8937e-09
8.00451e-07
-4.51935e-09
8.0162e-07
-1.62183e-09
8.02342e-07
1.20893e-09
8.02867e-07
7.69862e-10
8.02941e-07
3.32702e-09
8.02517e-07
6.40364e-09
8.01806e-07
6.97336e-09
8.00741e-07
8.33571e-09
7.99172e-07
1.13499e-08
7.97144e-07
1.38164e-08
7.94765e-07
1.50641e-08
7.92024e-07
1.64473e-08
7.88924e-07
1.7797e-08
7.8534e-07
2.04796e-08
7.81349e-07
2.23216e-08
7.77003e-07
2.36351e-08
7.72255e-07
2.54254e-08
7.67019e-07
2.81083e-08
7.61429e-07
2.94364e-08
7.55477e-07
3.08567e-08
7.49173e-07
3.22002e-08
7.4244e-07
3.43151e-08
7.35262e-07
3.6633e-08
3.79014e-08
7.27749e-07
4.53353e-08
-6.09857e-07
4.40237e-16
9.10097e-08
-5.6208e-07
1.37375e-07
-4.863e-07
1.84463e-07
-4.02959e-07
2.3201e-07
-3.25308e-07
2.79224e-07
-2.55781e-07
3.24975e-07
-1.96454e-07
3.67912e-07
-1.48382e-07
4.07073e-07
-1.07049e-07
4.41677e-07
-7.58124e-08
4.71409e-07
-5.45787e-08
4.96558e-07
-3.7217e-08
5.17984e-07
-2.59679e-08
5.35957e-07
-2.21875e-08
5.51569e-07
-1.6725e-08
5.65239e-07
-1.64651e-08
5.77379e-07
-1.70694e-08
5.88539e-07
-1.89866e-08
5.98908e-07
-2.14565e-08
6.08716e-07
-2.32898e-08
6.18131e-07
-2.50789e-08
6.27366e-07
-2.87377e-08
6.36421e-07
-2.91428e-08
6.45444e-07
-3.2464e-08
6.54407e-07
-3.32178e-08
6.63358e-07
-3.49253e-08
6.72291e-07
-3.5789e-08
6.81235e-07
-3.74272e-08
6.90173e-07
-3.85687e-08
6.98998e-07
-3.72242e-08
7.07877e-07
-3.99682e-08
7.16632e-07
-3.86396e-08
7.25277e-07
-3.80526e-08
7.33848e-07
-3.85426e-08
7.42287e-07
-3.80442e-08
7.50595e-07
-3.76973e-08
7.58767e-07
-3.74433e-08
7.66719e-07
-3.56007e-08
7.7459e-07
-3.69452e-08
7.82171e-07
-3.4123e-08
7.89522e-07
-3.28174e-08
7.96736e-07
-3.34151e-08
8.03589e-07
-2.99554e-08
8.10215e-07
-2.91802e-08
8.16614e-07
-2.86121e-08
8.22712e-07
-2.67348e-08
8.28481e-07
-2.45524e-08
8.34001e-07
-2.39096e-08
8.39168e-07
-2.1542e-08
8.43979e-07
-1.92933e-08
8.48515e-07
-1.84888e-08
8.5267e-07
-1.60279e-08
8.5647e-07
-1.40807e-08
8.59856e-07
-1.1309e-08
8.6291e-07
-9.9562e-09
8.65629e-07
-8.61259e-09
8.67983e-07
-6.87361e-09
8.69857e-07
-3.49601e-09
8.71276e-07
-2.09669e-10
8.72433e-07
-3.86897e-10
8.73129e-07
2.63096e-09
8.73317e-07
6.21575e-09
8.73171e-07
7.119e-09
8.72635e-07
8.87187e-09
8.71582e-07
1.24024e-08
8.70048e-07
1.5351e-08
8.68121e-07
1.69914e-08
8.65791e-07
1.87767e-08
8.63061e-07
2.05273e-08
8.59823e-07
2.37179e-08
8.5614e-07
2.60039e-08
8.52056e-07
2.77191e-08
8.47532e-07
2.99501e-08
8.42491e-07
3.31492e-08
8.37048e-07
3.48787e-08
8.31197e-07
3.67082e-08
8.24945e-07
3.84517e-08
8.18226e-07
4.10348e-08
8.11024e-07
4.38349e-08
4.54887e-08
8.03437e-07
4.14425e-08
-6.51299e-07
3.84925e-16
8.32038e-08
-6.03842e-07
1.25637e-07
-5.28733e-07
1.68887e-07
-4.46209e-07
2.1291e-07
-3.69331e-07
2.5725e-07
-3.00121e-07
3.01151e-07
-2.40355e-07
3.43552e-07
-1.90783e-07
3.8368e-07
-1.47176e-07
4.20521e-07
-1.12654e-07
4.53496e-07
-8.75539e-08
4.82627e-07
-6.63478e-08
5.08117e-07
-5.14583e-08
5.30292e-07
-4.43617e-08
5.49794e-07
-3.62277e-08
5.67007e-07
-3.36776e-08
5.82403e-07
-3.24659e-08
5.96406e-07
-3.29896e-08
6.09365e-07
-3.44151e-08
6.21571e-07
-3.54964e-08
6.33199e-07
-3.67066e-08
6.44434e-07
-3.9972e-08
6.55345e-07
-4.00542e-08
6.66064e-07
-4.31827e-08
6.76617e-07
-4.3771e-08
6.87053e-07
-4.53617e-08
6.97392e-07
-4.61274e-08
7.07661e-07
-4.76965e-08
7.17858e-07
-4.87662e-08
7.27921e-07
-4.7287e-08
7.37957e-07
-5.0004e-08
7.47855e-07
-4.8538e-08
7.57621e-07
-4.78177e-08
7.67274e-07
-4.81961e-08
7.76776e-07
-4.75463e-08
7.86123e-07
-4.70443e-08
7.95311e-07
-4.66307e-08
8.04276e-07
-4.45664e-08
8.13113e-07
-4.57821e-08
8.21673e-07
-4.26832e-08
8.29994e-07
-4.11384e-08
8.38139e-07
-4.15594e-08
8.45945e-07
-3.77618e-08
8.53504e-07
-3.67387e-08
8.60813e-07
-3.59218e-08
8.67817e-07
-3.37385e-08
8.74491e-07
-3.12262e-08
8.8089e-07
-3.03093e-08
8.86937e-07
-2.75882e-08
8.92624e-07
-2.49811e-08
8.9801e-07
-2.38747e-08
9.03014e-07
-2.10312e-08
9.07651e-07
-1.87181e-08
9.11875e-07
-1.55333e-08
9.15744e-07
-1.38255e-08
9.19256e-07
-1.2124e-08
9.22386e-07
-1.00038e-08
9.25052e-07
-6.16163e-09
9.27231e-07
-2.38936e-09
9.29113e-07
-2.26825e-09
9.30538e-07
1.20549e-09
9.31452e-07
5.30203e-09
9.31995e-07
6.57615e-09
9.3212e-07
8.74636e-09
9.31726e-07
1.27967e-08
9.30836e-07
1.62406e-08
9.29522e-07
1.83058e-08
9.27774e-07
2.05247e-08
9.25592e-07
2.27088e-08
9.22888e-07
2.64225e-08
9.19711e-07
2.91811e-08
9.16095e-07
3.1335e-08
9.12007e-07
3.40377e-08
9.07383e-07
3.77734e-08
9.02317e-07
3.99444e-08
8.96803e-07
4.22229e-08
8.90846e-07
4.4408e-08
8.8439e-07
4.74911e-08
8.7742e-07
5.0805e-08
5.28887e-08
8.7002e-07
3.83157e-08
-6.89615e-07
2.16244e-16
7.69164e-08
-6.42442e-07
1.1613e-07
-5.67946e-07
1.56141e-07
-4.8622e-07
1.97022e-07
-4.10212e-07
2.38524e-07
-3.41624e-07
2.8016e-07
-2.81991e-07
3.21122e-07
-2.31745e-07
3.60784e-07
-1.86838e-07
3.98308e-07
-1.50178e-07
4.3303e-07
-1.22276e-07
4.64654e-07
-9.7972e-08
4.93051e-07
-7.9855e-08
5.18318e-07
-6.96291e-08
5.40894e-07
-5.88035e-08
5.61074e-07
-5.38576e-08
5.79275e-07
-5.0667e-08
5.95892e-07
-4.96062e-08
6.11257e-07
-4.97806e-08
6.25653e-07
-4.98922e-08
6.39285e-07
-5.03382e-08
6.52337e-07
-5.30244e-08
6.64937e-07
-5.26547e-08
6.77199e-07
-5.54448e-08
6.89192e-07
-5.57636e-08
7.00969e-07
-5.71391e-08
7.1257e-07
-5.77282e-08
7.24025e-07
-5.91509e-08
7.35346e-07
-6.00872e-08
7.46506e-07
-5.84472e-08
7.57568e-07
-6.10663e-08
7.68476e-07
-5.94456e-08
7.79228e-07
-5.85697e-08
7.89835e-07
-5.88038e-08
8.00274e-07
-5.79848e-08
8.10538e-07
-5.73082e-08
8.20623e-07
-5.67155e-08
8.30486e-07
-5.44297e-08
8.40182e-07
-5.54778e-08
8.49615e-07
-5.21164e-08
8.58803e-07
-5.03267e-08
8.67785e-07
-5.05412e-08
8.76451e-07
-4.64283e-08
8.84857e-07
-4.51445e-08
8.92999e-07
-4.40634e-08
9.00835e-07
-4.1575e-08
9.08346e-07
-3.87371e-08
9.15566e-07
-3.75294e-08
9.22439e-07
-3.44605e-08
9.28956e-07
-3.14982e-08
9.35154e-07
-3.00734e-08
9.40975e-07
-2.68517e-08
9.46426e-07
-2.41696e-08
9.51472e-07
-2.05788e-08
9.5615e-07
-1.85036e-08
9.60457e-07
-1.64309e-08
9.64373e-07
-1.39197e-08
9.67832e-07
-9.62061e-09
9.70822e-07
-5.37916e-09
9.73474e-07
-4.92031e-09
9.75665e-07
-9.86351e-10
9.77361e-07
3.6062e-09
9.78658e-07
5.27896e-09
9.79522e-07
7.88308e-09
9.79871e-07
1.24475e-08
9.79721e-07
1.63905e-08
9.79125e-07
1.8902e-08
9.78074e-07
2.15757e-08
9.76567e-07
2.42161e-08
9.74531e-07
2.84581e-08
9.72004e-07
3.17079e-08
9.69011e-07
3.43279e-08
9.65525e-07
3.75238e-08
9.61492e-07
4.1807e-08
9.56986e-07
4.44503e-08
9.52e-07
4.72087e-08
9.4654e-07
4.98682e-08
9.40556e-07
5.34745e-08
9.34036e-07
5.73256e-08
5.98764e-08
9.27048e-07
3.57689e-08
-7.25384e-07
9.10536e-17
7.1788e-08
-6.78461e-07
1.08352e-07
-6.0451e-07
1.45655e-07
-5.23523e-07
1.83825e-07
-4.48381e-07
2.22737e-07
-3.80537e-07
2.62086e-07
-3.2134e-07
3.0127e-07
-2.70928e-07
3.39811e-07
-2.2538e-07
3.77014e-07
-1.87381e-07
4.12233e-07
-1.57494e-07
4.45068e-07
-1.30807e-07
4.75256e-07
-1.10043e-07
5.02703e-07
-9.70769e-08
5.2765e-07
-8.37505e-08
5.50262e-07
-7.64688e-08
5.70836e-07
-7.12412e-08
5.89689e-07
-6.84592e-08
6.0713e-07
-6.72221e-08
6.23435e-07
-6.61971e-08
6.38831e-07
-6.57336e-08
6.53491e-07
-6.76841e-08
6.6758e-07
-6.67442e-08
6.81202e-07
-6.90671e-08
6.94457e-07
-6.90187e-08
7.07407e-07
-7.00886e-08
7.20105e-07
-7.04261e-08
7.32585e-07
-7.1631e-08
7.44874e-07
-7.23757e-08
7.56972e-07
-7.05455e-08
7.68911e-07
-7.30053e-08
7.80675e-07
-7.12101e-08
7.92263e-07
-7.01571e-08
8.03677e-07
-7.02184e-08
8.14907e-07
-6.9214e-08
8.25945e-07
-6.83463e-08
8.36788e-07
-6.75585e-08
8.4741e-07
-6.50517e-08
8.57835e-07
-6.59028e-08
8.68009e-07
-6.22911e-08
8.77937e-07
-6.0254e-08
8.87636e-07
-6.02408e-08
8.97041e-07
-5.58332e-08
9.06178e-07
-5.42816e-08
9.15042e-07
-5.29273e-08
9.23605e-07
-5.01382e-08
9.31851e-07
-4.69825e-08
9.39796e-07
-4.54749e-08
9.47403e-07
-4.20675e-08
9.54662e-07
-3.87574e-08
9.61595e-07
-3.70058e-08
9.68158e-07
-3.34153e-08
9.74356e-07
-3.03672e-08
9.8016e-07
-2.63824e-08
9.85591e-07
-2.39354e-08
9.90647e-07
-2.14861e-08
9.95308e-07
-1.85816e-08
9.9953e-07
-1.38422e-08
1.0033e-06
-9.15055e-09
1.00671e-06
-8.32708e-09
1.00966e-06
-3.93752e-09
1.01213e-06
1.1321e-09
1.01419e-06
3.21938e-09
1.01581e-06
6.26433e-09
1.01693e-06
1.133e-08
1.01755e-06
1.57669e-08
1.01772e-06
1.87363e-08
1.01742e-06
2.18757e-08
1.01665e-06
2.49846e-08
1.01536e-06
2.97516e-08
1.01356e-06
3.3501e-08
1.01129e-06
3.66037e-08
1.00851e-06
4.03042e-08
1.00518e-06
4.51367e-08
1.00136e-06
4.82728e-08
9.97032e-07
5.15315e-08
9.92212e-07
5.46883e-08
9.86855e-07
5.88316e-08
9.80947e-07
6.32339e-08
6.62796e-08
9.74544e-07
3.36676e-08
-7.59051e-07
-9.70998e-17
6.75538e-08
-7.12348e-07
1.01921e-07
-6.38878e-07
1.36958e-07
-5.5856e-07
1.72815e-07
-4.84238e-07
2.09445e-07
-4.17166e-07
2.46659e-07
-3.58554e-07
2.84011e-07
-3.08281e-07
3.21148e-07
-2.62517e-07
3.575e-07
-2.23733e-07
3.92499e-07
-1.92493e-07
4.25748e-07
-1.64056e-07
4.56896e-07
-1.41191e-07
4.8573e-07
-1.25911e-07
5.12335e-07
-1.10356e-07
5.36759e-07
-1.00892e-07
5.59193e-07
-9.36751e-08
5.79872e-07
-8.91386e-08
5.9906e-07
-8.64104e-08
6.17e-07
-8.41369e-08
6.33918e-07
-8.2652e-08
6.49973e-07
-8.37388e-08
6.65354e-07
-8.21251e-08
6.80157e-07
-8.38704e-08
6.94504e-07
-8.33657e-08
7.08463e-07
-8.40477e-08
7.221e-07
-8.40628e-08
7.35453e-07
-8.49838e-08
7.4856e-07
-8.54826e-08
7.61444e-07
-8.34296e-08
7.74115e-07
-8.56769e-08
7.8659e-07
-8.36847e-08
7.98865e-07
-8.24327e-08
8.10943e-07
-8.22956e-08
8.22819e-07
-8.10903e-08
8.3449e-07
-8.00168e-08
8.45951e-07
-7.90203e-08
8.57191e-07
-7.62915e-08
8.68212e-07
-7.69236e-08
8.78991e-07
-7.30706e-08
8.89523e-07
-7.07853e-08
8.99811e-07
-7.05295e-08
9.09823e-07
-6.58444e-08
9.19563e-07
-6.40219e-08
9.29026e-07
-6.23901e-08
9.38194e-07
-5.93064e-08
9.47053e-07
-5.58418e-08
9.55609e-07
-5.40308e-08
9.63838e-07
-5.02957e-08
9.71728e-07
-4.6648e-08
9.79289e-07
-4.45671e-08
9.86494e-07
-4.06196e-08
9.93339e-07
-3.72125e-08
9.99805e-07
-3.28482e-08
1.0059e-06
-3.00311e-08
1.01162e-06
-2.72063e-08
1.01695e-06
-2.39128e-08
1.02186e-06
-1.8753e-08
1.02634e-06
-1.36299e-08
1.03044e-06
-1.24258e-08
1.0341e-06
-7.59672e-09
1.0373e-06
-2.06623e-09
1.04008e-06
4.39229e-10
1.04242e-06
3.9245e-09
1.04427e-06
9.47334e-09
1.04565e-06
1.43925e-08
1.04656e-06
1.78216e-08
1.04701e-06
2.14287e-08
1.04699e-06
2.50089e-08
1.04645e-06
3.02901e-08
1.04541e-06
3.45386e-08
1.04388e-06
3.81303e-08
1.04185e-06
4.23376e-08
1.03927e-06
4.77125e-08
1.0362e-06
5.13513e-08
1.03261e-06
5.51203e-08
1.02851e-06
5.8787e-08
1.02387e-06
6.34716e-08
1.01867e-06
6.84293e-08
7.19875e-08
1.01297e-06
3.19135e-08
-7.90965e-07
-3.66522e-16
6.40185e-08
-7.44453e-07
9.6548e-08
-6.71407e-07
1.29679e-07
-5.91691e-07
1.63569e-07
-5.18127e-07
1.98214e-07
-4.51812e-07
2.33505e-07
-3.93845e-07
2.6911e-07
-3.43886e-07
3.0477e-07
-2.98177e-07
3.4003e-07
-2.58992e-07
3.74403e-07
-2.26866e-07
4.07523e-07
-1.97176e-07
4.3902e-07
-1.72689e-07
4.6862e-07
-1.5551e-07
4.963e-07
-1.38036e-07
5.22015e-07
-1.26607e-07
5.45862e-07
-1.17522e-07
5.67996e-07
-1.11272e-07
5.88622e-07
-1.07036e-07
6.07935e-07
-1.03451e-07
6.26152e-07
-1.00869e-07
6.43409e-07
-1.00996e-07
6.59907e-07
-9.8623e-08
6.75735e-07
-9.96984e-08
6.91026e-07
-9.86569e-08
7.05856e-07
-9.8877e-08
7.20296e-07
-9.85036e-08
7.34393e-07
-9.908e-08
7.48191e-07
-9.92814e-08
7.61732e-07
-9.69705e-08
7.75014e-07
-9.89582e-08
7.88073e-07
-9.67437e-08
8.0091e-07
-9.52699e-08
8.13525e-07
-9.49106e-08
8.25923e-07
-9.34882e-08
8.38101e-07
-9.21946e-08
8.50057e-07
-9.09765e-08
8.61788e-07
-8.80226e-08
8.73283e-07
-8.84187e-08
8.84542e-07
-8.43296e-08
8.95552e-07
-8.17953e-08
9.06309e-07
-8.12863e-08
9.16801e-07
-7.63364e-08
9.27021e-07
-7.42418e-08
9.36961e-07
-7.23307e-08
9.46613e-07
-6.89584e-08
9.55965e-07
-6.51937e-08
9.65013e-07
-6.30789e-08
9.73744e-07
-5.90268e-08
9.82148e-07
-5.50517e-08
9.90224e-07
-5.26428e-08
9.97955e-07
-4.83505e-08
1.00534e-06
-4.45936e-08
1.01235e-06
-3.98647e-08
1.019e-06
-3.66832e-08
1.02529e-06
-3.34881e-08
1.03119e-06
-2.98136e-08
1.03669e-06
-2.4253e-08
1.04177e-06
-1.87178e-08
1.04648e-06
-1.71266e-08
1.05075e-06
-1.18752e-08
1.05459e-06
-5.9054e-09
1.05801e-06
-2.98108e-09
1.061e-06
9.3615e-10
1.06353e-06
6.94777e-09
1.06559e-06
1.23328e-08
1.06719e-06
1.62167e-08
1.06833e-06
2.0286e-08
1.06901e-06
2.4333e-08
1.06919e-06
3.01121e-08
1.06888e-06
3.48516e-08
1.06808e-06
3.89301e-08
1.06678e-06
4.36382e-08
1.06495e-06
4.95417e-08
1.06261e-06
5.36839e-08
1.05977e-06
5.79638e-08
1.05641e-06
6.2143e-08
1.05252e-06
6.73645e-08
1.04808e-06
7.2873e-08
7.69512e-08
1.04311e-06
3.04337e-08
-8.21399e-07
-4.78257e-16
6.10363e-08
-7.75055e-07
9.2015e-08
-7.02386e-07
1.23533e-07
-6.23209e-07
1.55745e-07
-5.50339e-07
1.88675e-07
-4.84742e-07
2.22263e-07
-4.27433e-07
2.56261e-07
-3.77885e-07
2.90483e-07
-3.32399e-07
3.24566e-07
-2.93075e-07
3.581e-07
-2.60401e-07
3.90757e-07
-2.29833e-07
4.22196e-07
-2.04127e-07
4.52113e-07
-1.85427e-07
4.80418e-07
-1.66341e-07
5.07001e-07
-1.5319e-07
5.31879e-07
-1.42401e-07
5.55136e-07
-1.34529e-07
5.76917e-07
-1.28817e-07
5.9737e-07
-1.23904e-07
6.16687e-07
-1.20185e-07
6.34979e-07
-1.19288e-07
6.52446e-07
-1.1609e-07
6.69169e-07
-1.16421e-07
6.85286e-07
-1.14774e-07
7.00875e-07
-1.14466e-07
7.16015e-07
-1.13644e-07
7.30754e-07
-1.13819e-07
7.45147e-07
-1.13675e-07
7.59246e-07
-1.11069e-07
7.73042e-07
-1.12754e-07
7.86588e-07
-1.1029e-07
7.99888e-07
-1.0857e-07
8.12943e-07
-1.07965e-07
8.25763e-07
-1.06308e-07
8.38348e-07
-1.0478e-07
8.50699e-07
-1.03327e-07
8.62818e-07
-1.00142e-07
8.74688e-07
-1.00288e-07
8.86322e-07
-9.59639e-08
8.97705e-07
-9.31785e-08
9.08827e-07
-9.24081e-08
9.19692e-07
-8.72015e-08
9.30284e-07
-8.48339e-08
9.40596e-07
-8.26425e-08
9.50624e-07
-7.89862e-08
9.60358e-07
-7.49283e-08
9.6979e-07
-7.25108e-08
9.78914e-07
-6.81506e-08
9.8772e-07
-6.38574e-08
9.96201e-07
-6.11235e-08
1.00435e-06
-5.64977e-08
1.01215e-06
-5.23999e-08
1.01961e-06
-4.732e-08
1.02671e-06
-4.37814e-08
1.03344e-06
-4.02232e-08
1.03981e-06
-3.61772e-08
1.04579e-06
-3.02337e-08
1.05137e-06
-2.4305e-08
1.05657e-06
-2.23265e-08
1.06137e-06
-1.66697e-08
1.06574e-06