# Probe 0 (0.03 0 0.0073)
# Time        0            
0.0001        3759.22      
0.0002        -42.6269     
0.0003        -4.97884     
0.0004        -3.35766     
0.0005        -2.31596     
0.0006        -1.69558     
0.0007        -1.29454     
0.0008        -1.02172     
0.0009        -0.828975    
0.001         -0.688728    
0.0011        -0.5845      
0.0012        -0.505359    
0.0013        -0.444608    
0.0014        -0.397451    
0.0015        -0.360357    
0.0016        -0.331       
0.0017        -0.307609    
0.0018        -0.288849    
0.0019        -0.273717    
0.002         -0.261489    
0.0021        -0.251556    
0.0022        -0.243512    
0.0023        -0.236998    
0.0024        -0.23179     
0.0025        -0.22767     
0.0026        -0.224024    
0.0027        -0.221195    
0.0028        -0.219042    
0.0029        -0.217364    
0.003         -0.216281    
0.0031        -0.215732    
0.0032        -0.215117    
0.0033        -0.214783    
0.0034        -0.214657    
0.0035        -0.214701    
0.0036        -0.214882    
0.0037        -0.215184    
0.0038        -0.215588    
0.0039        -0.216071    
0.004         -0.216622    
0.0041        -0.21723     
0.0042        -0.217882    
0.0043        -0.218573    
0.0044        -0.219289    
0.0045        -0.219994    
0.0046        -0.220703    
0.0047        -0.221676    
0.0048        -0.222475    
0.0049        -0.223261    
0.005         -0.224052    
0.0051        -0.22485     
0.0052        -0.225635    
0.0053        -0.226425    
0.0054        -0.227203    
0.0055        -0.227981    
0.0056        -0.228728    
0.0057        -0.229513    
0.0058        -0.230268    
0.0059        -0.23102     
0.006         -0.231756    
0.0061        -0.232486    
0.0062        -0.233216    
0.0063        -0.233937    
0.0064        -0.234643    
0.0065        -0.235342    
0.0066        -0.236029    
0.0067        -0.236703    
0.0068        -0.23738     
0.0069        -0.238039    
0.007         -0.238691    
0.0071        -0.239334    
0.0072        -0.23997     
0.0073        -0.240595    
0.0074        -0.24121     
0.0075        -0.241817    
0.0076        -0.242423    
0.0077        -0.24303     
0.0078        -0.243633    
0.0079        -0.244173    
0.008         -0.244728    
0.0081        -0.245258    
0.0082        -0.245813    
0.0083        -0.246362    
0.0084        -0.246896    
0.0085        -0.247426    
0.0086        -0.247949    
0.0087        -0.248465    
0.0088        -0.248974    
0.0089        -0.249478    
0.009         -0.249974    
0.0091        -0.250466    
0.0092        -0.250951    
0.0093        -0.251428    
0.0094        -0.251917    
0.0095        -0.252386    
0.0096        -0.252849    
0.0097        -0.253309    
0.0098        -0.253762    
0.0099        -0.254208    
0.01          -0.254652    
0.0101        -0.255086    
0.0102        -0.255515    
0.0103        -0.25594     
0.0104        -0.256362    
0.0105        -0.256781    
0.0106        -0.25719     
0.0107        -0.257599    
0.0108        -0.258005    
0.0109        -0.258406    
0.011         -0.258799    
0.0111        -0.259177    
0.0112        -0.259578    
0.0113        -0.259955    
0.0114        -0.260329    
0.0115        -0.260686    
0.0116        -0.261053    
0.0117        -0.261426    
0.0118        -0.261791    
0.0119        -0.262154    
0.012         -0.262511    
0.0121        -0.262866    
0.0122        -0.263217    
0.0123        -0.263562    
0.0124        -0.263908    
0.0125        -0.264249    
0.0126        -0.264586    
0.0127        -0.264921    
0.0128        -0.26525     
0.0129        -0.265581    
0.013         -0.265911    
0.0131        -0.266235    
0.0132        -0.266558    
0.0133        -0.266879    
0.0134        -0.267197    
0.0135        -0.267513    
0.0136        -0.267823    
0.0137        -0.268133    
0.0138        -0.26844     
0.0139        -0.268744    
0.014         -0.269048    
0.0141        -0.269349    
0.0142        -0.269646    
0.0143        -0.269941    
0.0144        -0.270234    
0.0145        -0.270527    
0.0146        -0.270817    
0.0147        -0.271105    
0.0148        -0.271389    
0.0149        -0.271672    
0.015         -0.271954    
0.0151        -0.272233    
0.0152        -0.272511    
0.0153        -0.272787    
0.0154        -0.273063    
0.0155        -0.273337    
0.0156        -0.273608    
0.0157        -0.273878    
0.0158        -0.274147    
0.0159        -0.274414    
0.016         -0.274681    
0.0161        -0.274945    
0.0162        -0.275209    
0.0163        -0.275469    
0.0164        -0.27573     
0.0165        -0.275983    
0.0166        -0.276247    
0.0167        -0.276503    
0.0168        -0.276757    
0.0169        -0.27701     
0.017         -0.277262    
0.0171        -0.277513    
0.0172        -0.277762    
0.0173        -0.278008    
0.0174        -0.278255    
0.0175        -0.278499    
0.0176        -0.278743    
0.0177        -0.278985    
0.0178        -0.279226    
0.0179        -0.279466    
0.018         -0.279704    
0.0181        -0.279944    
0.0182        -0.280181    
0.0183        -0.280417    
0.0184        -0.28065     
0.0185        -0.280885    
0.0186        -0.281117    
0.0187        -0.281347    
0.0188        -0.281577    
0.0189        -0.281805    
0.019         -0.282033    
0.0191        -0.28226     
0.0192        -0.282486    
0.0193        -0.282711    
0.0194        -0.282934    
0.0195        -0.283158    
0.0196        -0.283378    
0.0197        -0.283599    
0.0198        -0.283817    
0.0199        -0.284035    
0.02          -0.284254    
0.0201        -0.284472    
0.0202        -0.284688    
0.0203        -0.284903    
0.0204        -0.285118    
0.0205        -0.285332    
0.0206        -0.285544    
0.0207        -0.285756    
0.0208        -0.285967    
0.0209        -0.286177    
0.021         -0.286387    
0.0211        -0.286596    
0.0212        -0.286804    
0.0213        -0.287011    
0.0214        -0.287218    
0.0215        -0.287424    
0.0216        -0.287629    
0.0217        -0.287833    
0.0218        -0.288038    
0.0219        -0.288241    
0.022         -0.288445    
0.0221        -0.288648    
0.0222        -0.28885     
0.0223        -0.289052    
0.0224        -0.289253    
0.0225        -0.289454    
0.0226        -0.289655    
0.0227        -0.289855    
0.0228        -0.290055    
0.0229        -0.290254    
0.023         -0.290455    
0.0231        -0.290655    
0.0232        -0.290853    
0.0233        -0.291051    
0.0234        -0.291251    
0.0235        -0.291449    
0.0236        -0.291648    
0.0237        -0.291847    
0.0238        -0.292045    
0.0239        -0.292246    
0.024         -0.292445    
0.0241        -0.292643    
0.0242        -0.292844    
0.0243        -0.293043    
0.0244        -0.293244    
0.0245        -0.293445    
0.0246        -0.293646    
0.0247        -0.293846    
0.0248        -0.294049    
0.0249        -0.294251    
0.025         -0.294454    
0.0251        -0.294658    
0.0252        -0.294862    
0.0253        -0.295067    
0.0254        -0.295272    
0.0255        -0.295478    
0.0256        -0.295684    
0.0257        -0.29589     
0.0258        -0.296098    
0.0259        -0.296307    
0.026         -0.296518    
0.0261        -0.296729    
0.0262        -0.29694     
0.0263        -0.297153    
0.0264        -0.297368    
0.0265        -0.297583    
0.0266        -0.297799    
0.0267        -0.298017    
0.0268        -0.298235    
0.0269        -0.298455    
0.027         -0.298675    
0.0271        -0.298897    
0.0272        -0.299121    
0.0273        -0.299346    
0.0274        -0.299572    
0.0275        -0.299798    
0.0276        -0.300028    
0.0277        -0.300258    
0.0278        -0.300488    
0.0279        -0.30072     
0.028         -0.300954    
0.0281        -0.30119     
0.0282        -0.301427    
0.0283        -0.301664    
0.0284        -0.301902    
0.0285        -0.302143    
0.0286        -0.302385    
0.0287        -0.302628    
0.0288        -0.302872    
0.0289        -0.303118    
0.029         -0.303364    
0.0291        -0.303612    
0.0292        -0.303861    
0.0293        -0.304112    
0.0294        -0.304365    
0.0295        -0.304618    
0.0296        -0.304873    
0.0297        -0.305129    
0.0298        -0.305386    
0.0299        -0.305643    
0.03          -0.305903    
0.0301        -0.306163    
0.0302        -0.306424    
0.0303        -0.306687    
0.0304        -0.306952    
0.0305        -0.307217    
0.0306        -0.307483    
0.0307        -0.307749    
0.0308        -0.308017    
0.0309        -0.308285    
0.031         -0.308554    
0.0311        -0.308823    
0.0312        -0.309094    
0.0313        -0.309365    
0.0314        -0.309638    
0.0315        -0.30991     
0.0316        -0.310183    
0.0317        -0.310457    
0.0318        -0.31073     
0.0319        -0.311004    
0.032         -0.311278    
0.0321        -0.311553    
0.0322        -0.311828    
0.0323        -0.312104    
0.0324        -0.312378    
0.0325        -0.312654    
0.0326        -0.31293     
0.0327        -0.313207    
0.0328        -0.313482    
0.0329        -0.313759    
0.033         -0.314036    
0.0331        -0.314313    
0.0332        -0.314589    
0.0333        -0.314864    
0.0334        -0.31514     
0.0335        -0.315415    
0.0336        -0.315688    
0.0337        -0.315961    
0.0338        -0.316235    
0.0339        -0.316509    
0.034         -0.316782    
0.0341        -0.317053    
0.0342        -0.317324    
0.0343        -0.317593    
0.0344        -0.317862    
0.0345        -0.318135    
0.0346        -0.318404    
0.0347        -0.318672    
0.0348        -0.31894     
0.0349        -0.319206    
0.035         -0.319471    
0.0351        -0.319734    
0.0352        -0.319997    
0.0353        -0.32026     
0.0354        -0.320522    
0.0355        -0.320779    
0.0356        -0.321039    
0.0357        -0.321296    
0.0358        -0.32155     
0.0359        -0.321806    
0.036         -0.322059    
0.0361        -0.322309    
0.0362        -0.32256     
0.0363        -0.322811    
0.0364        -0.323058    
0.0365        -0.323304    
0.0366        -0.323549    
0.0367        -0.323794    
0.0368        -0.324035    
0.0369        -0.324276    
0.037         -0.324514    
0.0371        -0.324754    
0.0372        -0.324989    
0.0373        -0.325223    
0.0374        -0.325454    
0.0375        -0.325685    
0.0376        -0.325915    
0.0377        -0.326143    
0.0378        -0.326369    
0.0379        -0.326594    
0.038         -0.326819    
0.0381        -0.327041    
0.0382        -0.327259    
0.0383        -0.327475    
0.0384        -0.327691    
0.0385        -0.327907    
0.0386        -0.32812     
0.0387        -0.32833     
0.0388        -0.328538    
0.0389        -0.328745    
0.039         -0.328952    
0.0391        -0.329157    
0.0392        -0.329357    
0.0393        -0.329556    
0.0394        -0.329755    
0.0395        -0.329955    
0.0396        -0.330152    
0.0397        -0.330344    
0.0398        -0.330535    
0.0399        -0.330723    
0.04          -0.330911    
0.0401        -0.331099    
0.0402        -0.331283    
0.0403        -0.331465    
0.0404        -0.331645    
0.0405        -0.331823    
0.0406        -0.332002    
0.0407        -0.332182    
0.0408        -0.332358    
0.0409        -0.332529    
0.041         -0.3327      
0.0411        -0.332869    
0.0412        -0.333039    
0.0413        -0.333206    
0.0414        -0.33337     
0.0415        -0.333532    
0.0416        -0.333691    
0.0417        -0.33385     
0.0418        -0.33401     
0.0419        -0.33417     
0.042         -0.334326    
0.0421        -0.334479    
0.0422        -0.334629    
0.0423        -0.334778    
0.0424        -0.334928    
0.0425        -0.335078    
0.0426        -0.335222    
0.0427        -0.335364    
0.0428        -0.335506    
0.0429        -0.335642    
0.043         -0.335781    
0.0431        -0.33593     
0.0432        -0.336075    
0.0433        -0.336212    
0.0434        -0.336347    
0.0435        -0.336481    
0.0436        -0.336613    
0.0437        -0.336744    
0.0438        -0.33688     
0.0439        -0.337003    
0.044         -0.337131    
0.0441        -0.337258    
0.0442        -0.337383    
0.0443        -0.33751     
0.0444        -0.337631    
0.0445        -0.337752    
0.0446        -0.337876    
0.0447        -0.337995    
0.0448        -0.338108    
0.0449        -0.338223    
0.045         -0.338339    
0.0451        -0.338453    
0.0452        -0.338569    
0.0453        -0.33868     
0.0454        -0.338794    
0.0455        -0.338905    
0.0456        -0.339014    
0.0457        -0.339117    
0.0458        -0.339217    
0.0459        -0.339314    
0.046         -0.339433    
0.0461        -0.339549    
0.0462        -0.339657    
0.0463        -0.339754    
0.0464        -0.339858    
0.0465        -0.339957    
0.0466        -0.340065    
0.0467        -0.340161    
0.0468        -0.340259    
0.0469        -0.340355    
0.047         -0.340454    
0.0471        -0.340553    
0.0472        -0.340647    
0.0473        -0.340737    
0.0474        -0.340835    
0.0475        -0.340926    
0.0476        -0.341014    
0.0477        -0.341104    
0.0478        -0.341196    
0.0479        -0.341288    
0.048         -0.341376    
0.0481        -0.341462    
0.0482        -0.341543    
0.0483        -0.341617    
0.0484        -0.34171     
0.0485        -0.341813    
0.0486        -0.3419      
0.0487        -0.341985    
0.0488        -0.342066    
0.0489        -0.342143    
0.049         -0.342232    
0.0491        -0.342311    
0.0492        -0.342382    
0.0493        -0.342471    
0.0494        -0.342565    
0.0495        -0.342646    
0.0496        -0.342724    
0.0497        -0.342805    
0.0498        -0.342884    
0.0499        -0.342963    
0.05          -0.343043    
0.0501        -0.343118    
0.0502        -0.343193    
0.0503        -0.343265    
0.0504        -0.343346    
0.0505        -0.343419    
0.0506        -0.343493    
0.0507        -0.343561    
0.0508        -0.343634    
0.0509        -0.343709    
0.051         -0.343777    
0.0511        -0.343845    
0.0512        -0.343912    
0.0513        -0.343983    
0.0514        -0.34407     
0.0515        -0.344145    
0.0516        -0.34421     
0.0517        -0.344279    
0.0518        -0.344353    
0.0519        -0.344409    
0.052         -0.344473    
0.0521        -0.344552    
0.0522        -0.344639    
0.0523        -0.344699    
0.0524        -0.344775    
0.0525        -0.344832    
0.0526        -0.344903    
0.0527        -0.344975    
0.0528        -0.345039    
0.0529        -0.3451      
0.053         -0.345162    
0.0531        -0.345227    
0.0532        -0.345295    
0.0533        -0.345353    
0.0534        -0.345416    
0.0535        -0.345478    
0.0536        -0.345534    
0.0537        -0.345594    
0.0538        -0.345658    
0.0539        -0.345721    
0.054         -0.345775    
0.0541        -0.345831    
0.0542        -0.345895    
0.0543        -0.345966    
0.0544        -0.346031    
0.0545        -0.346083    
0.0546        -0.346151    
0.0547        -0.346217    
0.0548        -0.34628     
0.0549        -0.346332    
0.055         -0.346388    
0.0551        -0.346438    
0.0552        -0.346501    
0.0553        -0.346557    
0.0554        -0.346614    
0.0555        -0.346664    
0.0556        -0.346719    
0.0557        -0.346787    
0.0558        -0.346851    
0.0559        -0.346907    
0.056         -0.346978    
0.0561        -0.347052    
0.0562        -0.347107    
0.0563        -0.347157    
0.0564        -0.347223    
0.0565        -0.347266    
0.0566        -0.347312    
0.0567        -0.347371    
0.0568        -0.347421    
0.0569        -0.347479    
0.057         -0.347553    
0.0571        -0.347599    
0.0572        -0.347656    
0.0573        -0.34771     
0.0574        -0.347751    
0.0575        -0.347802    
0.0576        -0.347869    
0.0577        -0.347922    
0.0578        -0.347982    
0.0579        -0.348034    
0.058         -0.348081    
0.0581        -0.348127    
0.0582        -0.348174    
0.0583        -0.348232    
0.0584        -0.348286    
0.0585        -0.348344    
0.0586        -0.348393    
0.0587        -0.348449    
0.0588        -0.348501    
0.0589        -0.348552    
0.059         -0.348606    
0.0591        -0.348655    
0.0592        -0.348701    
0.0593        -0.348748    
0.0594        -0.348794    
0.0595        -0.348839    
0.0596        -0.348886    
0.0597        -0.348934    
0.0598        -0.348988    
0.0599        -0.349043    
0.06          -0.349093    
0.0601        -0.349137    
0.0602        -0.349182    
0.0603        -0.349236    
0.0604        -0.349286    
0.0605        -0.349334    
0.0606        -0.34938     
0.0607        -0.349423    
0.0608        -0.349466    
0.0609        -0.34951     
0.061         -0.349553    
0.0611        -0.349597    
0.0612        -0.349642    
0.0613        -0.349684    
0.0614        -0.349737    
0.0615        -0.349795    
0.0616        -0.349838    
0.0617        -0.34989     
0.0618        -0.349954    
0.0619        -0.350029    
0.062         -0.350071    
0.0621        -0.350109    
0.0622        -0.350155    
0.0623        -0.35021     
0.0624        -0.350254    
0.0625        -0.350313    
0.0626        -0.35036     
0.0627        -0.350407    
0.0628        -0.350453    
0.0629        -0.350502    
0.063         -0.350553    
0.0631        -0.350613    
0.0632        -0.350684    
0.0633        -0.350733    
0.0634        -0.350778    
0.0635        -0.350819    
0.0636        -0.350863    
0.0637        -0.350911    
0.0638        -0.350957    
0.0639        -0.351004    
0.064         -0.351049    
0.0641        -0.351101    
0.0642        -0.351143    
0.0643        -0.351194    
0.0644        -0.351231    
0.0645        -0.351255    
0.0646        -0.351295    
0.0647        -0.351344    
0.0648        -0.351383    
0.0649        -0.351429    
0.065         -0.351461    
0.0651        -0.351507    
0.0652        -0.351546    
0.0653        -0.351595    
0.0654        -0.351638    
0.0655        -0.351688    
0.0656        -0.351729    
0.0657        -0.351782    
0.0658        -0.351824    
0.0659        -0.351874    
0.066         -0.351917    
0.0661        -0.351966    
0.0662        -0.352007    
0.0663        -0.352057    
0.0664        -0.352098    
0.0665        -0.352133    
0.0666        -0.352171    
0.0667        -0.352219    
0.0668        -0.35226     
0.0669        -0.352303    
0.067         -0.352344    
0.0671        -0.352387    
0.0672        -0.352433    
0.0673        -0.352477    
0.0674        -0.352519    
0.0675        -0.352561    
0.0676        -0.352603    
0.0677        -0.352654    
0.0678        -0.352698    
0.0679        -0.352745    
0.068         -0.35279     
0.0681        -0.352836    
0.0682        -0.352875    
0.0683        -0.352917    
0.0684        -0.35296     
0.0685        -0.353001    
0.0686        -0.353043    
0.0687        -0.353088    
0.0688        -0.353128    
0.0689        -0.353171    
0.069         -0.353212    
0.0691        -0.353253    
0.0692        -0.353294    
0.0693        -0.353337    
0.0694        -0.353381    
0.0695        -0.353421    
0.0696        -0.353462    
0.0697        -0.353503    
0.0698        -0.353544    
0.0699        -0.353585    
0.07          -0.353626    
0.0701        -0.353667    
0.0702        -0.353711    
0.0703        -0.35375     
0.0704        -0.353789    
0.0705        -0.353831    
0.0706        -0.353878    
0.0707        -0.353921    
0.0708        -0.353968    
0.0709        -0.354009    
0.071         -0.354053    
0.0711        -0.354095    
0.0712        -0.354143    
0.0713        -0.354185    
0.0714        -0.354227    
0.0715        -0.354268    
0.0716        -0.354307    
0.0717        -0.354352    
0.0718        -0.354394    
0.0719        -0.354435    
0.072         -0.354475    
0.0721        -0.354515    
0.0722        -0.354556    
0.0723        -0.354595    
0.0724        -0.354639    
0.0725        -0.354679    
0.0726        -0.354718    
0.0727        -0.354762    
0.0728        -0.354802    
0.0729        -0.354842    
0.073         -0.354881    
0.0731        -0.354921    
0.0732        -0.35496     
0.0733        -0.355       
0.0734        -0.355039    
0.0735        -0.355078    
0.0736        -0.355119    
0.0737        -0.355159    
0.0738        -0.355198    
0.0739        -0.35524     
0.074         -0.35528     
0.0741        -0.35532     
0.0742        -0.355364    
0.0743        -0.355411    
0.0744        -0.355455    
0.0745        -0.355497    
0.0746        -0.355538    
0.0747        -0.355584    
0.0748        -0.355627    
0.0749        -0.355667    
0.075         -0.355705    
0.0751        -0.355744    
0.0752        -0.355782    
0.0753        -0.355819    
0.0754        -0.355858    
0.0755        -0.3559      
0.0756        -0.35594     
0.0757        -0.35598     
0.0758        -0.356018    
0.0759        -0.356057    
0.076         -0.356098    
0.0761        -0.356138    
0.0762        -0.356177    
0.0763        -0.356217    
0.0764        -0.356256    
0.0765        -0.356294    
0.0766        -0.356333    
0.0767        -0.356373    
0.0768        -0.356413    
0.0769        -0.356453    
0.077         -0.356493    
0.0771        -0.356532    
0.0772        -0.35657     
0.0773        -0.356608    
0.0774        -0.356647    
0.0775        -0.356689    
0.0776        -0.35673     
0.0777        -0.356773    
0.0778        -0.356815    
0.0779        -0.356853    
0.078         -0.356891    
0.0781        -0.356929    
0.0782        -0.356967    
0.0783        -0.357007    
0.0784        -0.35705     
0.0785        -0.357092    
0.0786        -0.357133    
0.0787        -0.357176    
0.0788        -0.35722     
0.0789        -0.357261    
0.079         -0.357298    
0.0791        -0.357338    
0.0792        -0.357377    
0.0793        -0.357416    
0.0794        -0.357455    
0.0795        -0.357495    
0.0796        -0.357534    
0.0797        -0.357571    
0.0798        -0.35761     
0.0799        -0.357647    
0.08          -0.357686    
0.0801        -0.357726    
0.0802        -0.357764    
0.0803        -0.357804    
0.0804        -0.357843    
0.0805        -0.357881    
0.0806        -0.357919    
0.0807        -0.357957    
0.0808        -0.357995    
0.0809        -0.358032    
0.081         -0.358071    
0.0811        -0.35811     
0.0812        -0.35815     
0.0813        -0.358188    
0.0814        -0.358226    
0.0815        -0.358266    
0.0816        -0.358306    
0.0817        -0.358345    
0.0818        -0.358387    
0.0819        -0.358425    
0.082         -0.358463    
0.0821        -0.358501    
0.0822        -0.358538    
0.0823        -0.358576    
0.0824        -0.358615    
0.0825        -0.358653    
0.0826        -0.358691    
0.0827        -0.358728    
0.0828        -0.358766    
0.0829        -0.358802    
0.083         -0.358842    
0.0831        -0.358881    
0.0832        -0.35892     
0.0833        -0.358962    
0.0834        -0.359       
0.0835        -0.359038    
0.0836        -0.359077    
0.0837        -0.359114    
0.0838        -0.359153    
0.0839        -0.359194    
0.084         -0.359233    
0.0841        -0.359271    
0.0842        -0.359308    
0.0843        -0.359345    
0.0844        -0.359385    
0.0845        -0.359422    
0.0846        -0.359458    
0.0847        -0.359499    
0.0848        -0.359537    
0.0849        -0.359575    
0.085         -0.359613    
0.0851        -0.359651    
0.0852        -0.359687    
0.0853        -0.359725    
0.0854        -0.359763    
0.0855        -0.3598      
0.0856        -0.359835    
0.0857        -0.359872    
0.0858        -0.359909    
0.0859        -0.359948    
0.086         -0.359986    
0.0861        -0.360025    
0.0862        -0.360064    
0.0863        -0.360102    
0.0864        -0.36014     
0.0865        -0.360176    
0.0866        -0.360214    
0.0867        -0.360252    
0.0868        -0.360288    
0.0869        -0.360325    
0.087         -0.360364    
0.0871        -0.360404    
0.0872        -0.360442    
0.0873        -0.360478    
0.0874        -0.360515    
0.0875        -0.360551    
0.0876        -0.360588    
0.0877        -0.360626    
0.0878        -0.360663    
0.0879        -0.360699    
0.088         -0.360735    
0.0881        -0.360773    
0.0882        -0.360811    
0.0883        -0.360849    
0.0884        -0.360886    
0.0885        -0.360923    
0.0886        -0.360958    
0.0887        -0.360996    
0.0888        -0.361034    
0.0889        -0.36107     
0.089         -0.361107    
0.0891        -0.361144    
0.0892        -0.361181    
0.0893        -0.361218    
0.0894        -0.361254    
0.0895        -0.36129     
0.0896        -0.361326    
0.0897        -0.361364    
0.0898        -0.361402    
0.0899        -0.361439    
0.09          -0.361476    
0.0901        -0.361513    
0.0902        -0.361548    
0.0903        -0.361585    
0.0904        -0.361622    
0.0905        -0.36166     
0.0906        -0.361697    
0.0907        -0.361733    
0.0908        -0.361769    
0.0909        -0.361806    
0.091         -0.361843    
0.0911        -0.361879    
0.0912        -0.361914    
0.0913        -0.36195     
0.0914        -0.361986    
0.0915        -0.362021    
0.0916        -0.362057    
0.0917        -0.362094    
0.0918        -0.36213     
0.0919        -0.362166    
0.092         -0.362202    
0.0921        -0.362237    
0.0922        -0.362272    
0.0923        -0.362308    
0.0924        -0.362345    
0.0925        -0.362379    
0.0926        -0.362415    
0.0927        -0.362451    
0.0928        -0.362486    
0.0929        -0.362522    
0.093         -0.362558    
0.0931        -0.362594    
0.0932        -0.36263     
0.0933        -0.362666    
0.0934        -0.362701    
0.0935        -0.362736    
0.0936        -0.36277     
0.0937        -0.362808    
0.0938        -0.362844    
0.0939        -0.362879    
0.094         -0.362913    
0.0941        -0.362948    
0.0942        -0.362982    
0.0943        -0.363017    
0.0944        -0.363051    
0.0945        -0.363086    
0.0946        -0.36312     
0.0947        -0.363154    
0.0948        -0.363189    
0.0949        -0.363225    
0.095         -0.363259    
0.0951        -0.363294    
0.0952        -0.363328    
0.0953        -0.363364    
0.0954        -0.363399    
0.0955        -0.363433    
0.0956        -0.363467    
0.0957        -0.363502    
0.0958        -0.363538    
0.0959        -0.363571    
0.096         -0.363605    
0.0961        -0.363639    
0.0962        -0.363672    
0.0963        -0.363707    
0.0964        -0.363741    
0.0965        -0.363773    
0.0966        -0.363807    
0.0967        -0.36384     
0.0968        -0.363874    
0.0969        -0.36391     
0.097         -0.363944    
0.0971        -0.363977    
0.0972        -0.36401     
0.0973        -0.364043    
0.0974        -0.364079    
0.0975        -0.364113    
0.0976        -0.364148    
0.0977        -0.364178    
0.0978        -0.364213    
0.0979        -0.364244    
0.098         -0.36428     
0.0981        -0.364309    
0.0982        -0.364346    
0.0983        -0.364375    
0.0984        -0.364413    
0.0985        -0.364441    
0.0986        -0.364481    
0.0987        -0.364504    
0.0988        -0.364544    
0.0989        -0.364567    
0.099         -0.364609    
0.0991        -0.364631    
0.0992        -0.364675    
0.0993        -0.364698    
0.0994        -0.36474     
0.0995        -0.36476     
0.0996        -0.364802    
0.0997        -0.364823    
0.0998        -0.364864    
0.0999        -0.364887    
0.1           -0.364927    
0.1001        -0.364949    
0.1002        -0.364988    
0.1003        -0.365011    
0.1004        -0.365049    
0.1005        -0.365073    
0.1006        -0.365109    
0.1007        -0.365135    
0.1008        -0.365172    
0.1009        -0.365198    
0.101         -0.365233    
0.1011        -0.365261    
0.1012        -0.365293    
0.1013        -0.36532     
0.1014        -0.365352    
0.1015        -0.365381    
0.1016        -0.365413    
0.1017        -0.365442    
0.1018        -0.365474    
0.1019        -0.365504    
0.102         -0.365536    
0.1021        -0.365564    
0.1022        -0.365595    
0.1023        -0.365622    
0.1024        -0.365651    
0.1025        -0.365678    
0.1026        -0.365708    
0.1027        -0.365735    
0.1028        -0.365765    
0.1029        -0.365793    
0.103         -0.365824    
0.1031        -0.365851    
0.1032        -0.36588     
0.1033        -0.365907    
0.1034        -0.365936    
0.1035        -0.365963    
0.1036        -0.365992    
0.1037        -0.36602     
0.1038        -0.366048    
0.1039        -0.366075    
0.104         -0.366102    
0.1041        -0.366129    
0.1042        -0.366156    
0.1043        -0.366185    
0.1044        -0.366212    
0.1045        -0.36624     
0.1046        -0.366265    
0.1047        -0.366294    
0.1048        -0.36632     
0.1049        -0.36635     
0.105         -0.366375    
0.1051        -0.366403    
0.1052        -0.366426    
0.1053        -0.366454    
0.1054        -0.366477    
0.1055        -0.366504    
0.1056        -0.366528    
0.1057        -0.366556    
0.1058        -0.366579    
0.1059        -0.366606    
0.106         -0.36663     
0.1061        -0.366657    
0.1062        -0.366679    
0.1063        -0.366709    
0.1064        -0.366732    
0.1065        -0.366759    
0.1066        -0.366781    
0.1067        -0.366808    
0.1068        -0.366829    
0.1069        -0.366856    