# Probe 0 0.03 0 0.0073
# Time        0            
0.0001        1.33324 -5.32061e-16 0.213397
0.0002        1.26479 6.03365e-18 -0.080239
0.0003        1.25218 7.04114e-19 -0.0669385
0.0004        1.24417 4.75131e-19 -0.0705409
0.0005        1.23935 3.27714e-19 -0.0723856
0.0006        1.23635 2.39928e-19 -0.0733982
0.0007        1.23446 1.83181e-19 -0.073953
0.0008        1.23326 1.4458e-19 -0.0742817
0.0009        1.23251 1.17307e-19 -0.0744693
0.001         1.23207 9.74622e-20 -0.0745713
0.0011        1.23184 8.27139e-20 -0.07462
0.0012        1.23175 7.15153e-20 -0.0746353
0.0013        1.23176 6.29187e-20 -0.0746303
0.0014        1.23185 5.62457e-20 -0.0746129
0.0015        1.23198 5.09966e-20 -0.0745886
0.0016        1.23215 4.68424e-20 -0.0745607
0.0017        1.23234 4.35323e-20 -0.0745317
0.0018        1.23255 4.08775e-20 -0.0745027
0.0019        1.23277 3.87363e-20 -0.0744745
0.002         1.23299 3.70058e-20 -0.0744476
0.0021        1.23321 3.56002e-20 -0.0744221
0.0022        1.23343 3.44618e-20 -0.0743978
0.0023        1.23364 3.354e-20 -0.0743748
0.0024        1.23385 3.2803e-20 -0.0743529
0.0025        1.23404 3.22201e-20 -0.0743319
0.0026        1.23423 3.17041e-20 -0.0743119
0.0027        1.23441 3.13037e-20 -0.0742926
0.0028        1.23457 3.0999e-20 -0.0742738
0.0029        1.23472 3.07615e-20 -0.0742553
0.003         1.23485 3.06083e-20 -0.074237
0.0031        1.23497 3.05306e-20 -0.0742185
0.0032        1.23507 3.04436e-20 -0.0742
0.0033        1.23515 3.03962e-20 -0.0741814
0.0034        1.23522 3.03784e-20 -0.0741624
0.0035        1.23526 3.03846e-20 -0.0741431
0.0036        1.23529 3.04102e-20 -0.0741233
0.0037        1.23529 3.04529e-20 -0.0741029
0.0038        1.23527 3.051e-20 -0.0740819
0.0039        1.23524 3.05784e-20 -0.0740601
0.004         1.23518 3.06563e-20 -0.0740376
0.0041        1.23509 3.07422e-20 -0.0740141
0.0042        1.23499 3.08345e-20 -0.0739898
0.0043        1.23486 3.09322e-20 -0.0739646
0.0044        1.23471 3.10335e-20 -0.0739383
0.0045        1.23454 3.11331e-20 -0.073911
0.0046        1.23434 3.12335e-20 -0.0738827
0.0047        1.23412 3.1371e-20 -0.0738532
0.0048        1.23388 3.1484e-20 -0.0738225
0.0049        1.23361 3.15952e-20 -0.0737907
0.005         1.23332 3.17071e-20 -0.0737578
0.0051        1.23301 3.182e-20 -0.0737236
0.0052        1.23267 3.1931e-20 -0.0736883
0.0053        1.23231 3.20427e-20 -0.0736518
0.0054        1.23192 3.21527e-20 -0.0736141
0.0055        1.23151 3.22627e-20 -0.0735751
0.0056        1.23108 3.23682e-20 -0.073535
0.0057        1.23063 3.24792e-20 -0.0734936
0.0058        1.23015 3.25861e-20 -0.0734509
0.0059        1.22965 3.26923e-20 -0.0734071
0.006         1.22913 3.27964e-20 -0.073362
0.0061        1.22858 3.28996e-20 -0.0733158
0.0062        1.22802 3.30028e-20 -0.0732683
0.0063        1.22743 3.31047e-20 -0.0732197
0.0064        1.22682 3.32045e-20 -0.0731699
0.0065        1.22619 3.33033e-20 -0.073119
0.0066        1.22554 3.34004e-20 -0.0730669
0.0067        1.22487 3.34957e-20 -0.0730136
0.0068        1.22417 3.35913e-20 -0.0729593
0.0069        1.22346 3.36846e-20 -0.0729039
0.007         1.22273 3.37767e-20 -0.0728473
0.0071        1.22198 3.38676e-20 -0.0727898
0.0072        1.22121 3.39575e-20 -0.0727311
0.0073        1.22043 3.40457e-20 -0.0726715
0.0074        1.21962 3.41326e-20 -0.0726108
0.0075        1.2188 3.42185e-20 -0.0725492
0.0076        1.21796 3.43041e-20 -0.0724866
0.0077        1.2171 3.43899e-20 -0.072423
0.0078        1.21623 3.44751e-20 -0.0723586
0.0079        1.21534 3.45514e-20 -0.0722932
0.008         1.21443 3.46298e-20 -0.072227
0.0081        1.21351 3.47046e-20 -0.07216
0.0082        1.21258 3.47831e-20 -0.0720921
0.0083        1.21162 3.48606e-20 -0.0720234
0.0084        1.21066 3.49362e-20 -0.0719538
0.0085        1.20968 3.5011e-20 -0.0718835
0.0086        1.20869 3.5085e-20 -0.0718125
0.0087        1.20768 3.51579e-20 -0.0717407
0.0088        1.20666 3.52298e-20 -0.0716682
0.0089        1.20563 3.53009e-20 -0.071595
0.009         1.20459 3.53711e-20 -0.0715211
0.0091        1.20353 3.54405e-20 -0.0714466
0.0092        1.20246 3.5509e-20 -0.0713715
0.0093        1.20138 3.55764e-20 -0.0712957
0.0094        1.20029 3.56455e-20 -0.0712194
0.0095        1.19919 3.57118e-20 -0.0711425
0.0096        1.19808 3.57772e-20 -0.0710651
0.0097        1.19696 3.58421e-20 -0.0709871
0.0098        1.19583 3.59061e-20 -0.0709086
0.0099        1.19469 3.59692e-20 -0.0708296
0.01          1.19354 3.60319e-20 -0.0707501
0.0101        1.19238 3.60931e-20 -0.0706702
0.0102        1.19121 3.61537e-20 -0.0705898
0.0103        1.19003 3.62137e-20 -0.070509
0.0104        1.18885 3.62733e-20 -0.0704278
0.0105        1.18766 3.63325e-20 -0.0703461
0.0106        1.18646 3.63904e-20 -0.0702641
0.0107        1.18525 3.64481e-20 -0.0701817
0.0108        1.18404 3.65054e-20 -0.070099
0.0109        1.18282 3.6562e-20 -0.070016
0.011         1.18159 3.66176e-20 -0.0699326
0.0111        1.18036 3.66709e-20 -0.0698489
0.0112        1.17912 3.67277e-20 -0.0697649
0.0113        1.17788 3.67808e-20 -0.0696807
0.0114        1.17663 3.68337e-20 -0.0695962
0.0115        1.17537 3.68841e-20 -0.0695114
0.0116        1.17411 3.6936e-20 -0.0694264
0.0117        1.17284 3.69887e-20 -0.0693412
0.0118        1.17157 3.70403e-20 -0.0692558
0.0119        1.1703 3.70915e-20 -0.0691702
0.012         1.16902 3.71419e-20 -0.0690843
0.0121        1.16773 3.71921e-20 -0.0689983
0.0122        1.16644 3.72417e-20 -0.0689122
0.0123        1.16515 3.72904e-20 -0.0688258
0.0124        1.16385 3.73392e-20 -0.0687394
0.0125        1.16256 3.73874e-20 -0.0686528
0.0126        1.16125 3.7435e-20 -0.068566
0.0127        1.15995 3.74823e-20 -0.0684792
0.0128        1.15864 3.75289e-20 -0.0683922
0.0129        1.15733 3.75756e-20 -0.0683052
0.013         1.15601 3.76222e-20 -0.068218
0.0131        1.1547 3.7668e-20 -0.0681308
0.0132        1.15338 3.77136e-20 -0.0680435
0.0133        1.15205 3.77589e-20 -0.0679561
0.0134        1.15073 3.78039e-20 -0.0678687
0.0135        1.14941 3.78485e-20 -0.0677813
0.0136        1.14808 3.78923e-20 -0.0676938
0.0137        1.14675 3.79361e-20 -0.0676063
0.0138        1.14542 3.79795e-20 -0.0675188
0.0139        1.14409 3.80224e-20 -0.0674312
0.014         1.14275 3.80654e-20 -0.0673436
0.0141        1.14142 3.81079e-20 -0.0672561
0.0142        1.14008 3.81499e-20 -0.0671685
0.0143        1.13874 3.81916e-20 -0.0670809
0.0144        1.13741 3.8233e-20 -0.0669934
0.0145        1.13607 3.82744e-20 -0.0669059
0.0146        1.13473 3.83153e-20 -0.0668184
0.0147        1.13339 3.8356e-20 -0.0667309
0.0148        1.13205 3.83961e-20 -0.0666435
0.0149        1.13071 3.84361e-20 -0.0665561
0.015         1.12936 3.84759e-20 -0.0664688
0.0151        1.12802 3.85154e-20 -0.0663816
0.0152        1.12668 3.85547e-20 -0.0662944
0.0153        1.12534 3.85937e-20 -0.0662073
0.0154        1.124 3.86327e-20 -0.0661202
0.0155        1.12266 3.86714e-20 -0.0660333
0.0156        1.12131 3.87097e-20 -0.0659464
0.0157        1.11997 3.87479e-20 -0.0658596
0.0158        1.11863 3.87859e-20 -0.065773
0.0159        1.11729 3.88236e-20 -0.0656864
0.016         1.11595 3.88613e-20 -0.0656
0.0161        1.11461 3.88987e-20 -0.0655136
0.0162        1.11327 3.89359e-20 -0.0654274
0.0163        1.11193 3.89728e-20 -0.0653413
0.0164        1.1106 3.90096e-20 -0.0652554
0.0165        1.10926 3.90453e-20 -0.0651696
0.0166        1.10792 3.90827e-20 -0.0650839
0.0167        1.10659 3.91188e-20 -0.0649985
0.0168        1.10525 3.91548e-20 -0.0649131
0.0169        1.10392 3.91905e-20 -0.064828
0.017         1.10259 3.92261e-20 -0.064743
0.0171        1.10125 3.92616e-20 -0.0646582
0.0172        1.09992 3.92968e-20 -0.0645736
0.0173        1.09859 3.93316e-20 -0.0644892
0.0174        1.09727 3.93665e-20 -0.064405
0.0175        1.09594 3.94011e-20 -0.064321
0.0176        1.09461 3.94355e-20 -0.0642373
0.0177        1.09329 3.94698e-20 -0.0641538
0.0178        1.09196 3.95038e-20 -0.0640706
0.0179        1.09064 3.95378e-20 -0.0639876
0.018         1.08932 3.95713e-20 -0.0639048
0.0181        1.088 3.96053e-20 -0.0638224
0.0182        1.08669 3.96388e-20 -0.0637402
0.0183        1.08537 3.96722e-20 -0.0636584
0.0184        1.08406 3.97051e-20 -0.0635769
0.0185        1.08274 3.97383e-20 -0.0634957
0.0186        1.08143 3.97711e-20 -0.0634148
0.0187        1.08012 3.98037e-20 -0.0633343
0.0188        1.07881 3.98362e-20 -0.0632542
0.0189        1.07751 3.98684e-20 -0.0631745
0.019         1.0762 3.99007e-20 -0.0630951
0.0191        1.0749 3.99328e-20 -0.0630162
0.0192        1.0736 3.99647e-20 -0.0629378
0.0193        1.07229 3.99966e-20 -0.0628598
0.0194        1.071 4.00281e-20 -0.0627822
0.0195        1.0697 4.00598e-20 -0.0627052
0.0196        1.0684 4.0091e-20 -0.0626287
0.0197        1.06711 4.01221e-20 -0.0625527
0.0198        1.06582 4.01531e-20 -0.0624773
0.0199        1.06453 4.01839e-20 -0.0624024
0.02          1.06324 4.02148e-20 -0.0623282
0.0201        1.06195 4.02457e-20 -0.0622546
0.0202        1.06067 4.02762e-20 -0.0621816
0.0203        1.05939 4.03067e-20 -0.0621093
0.0204        1.0581 4.0337e-20 -0.0620377
0.0205        1.05682 4.03673e-20 -0.0619668
0.0206        1.05555 4.03974e-20 -0.0618966
0.0207        1.05427 4.04273e-20 -0.0618272
0.0208        1.05299 4.04572e-20 -0.0617587
0.0209        1.05172 4.04869e-20 -0.0616909
0.021         1.05045 4.05166e-20 -0.061624
0.0211        1.04918 4.05462e-20 -0.061558
0.0212        1.04791 4.05755e-20 -0.0614928
0.0213        1.04664 4.06049e-20 -0.0614286
0.0214        1.04538 4.06342e-20 -0.0613654
0.0215        1.04412 4.06634e-20 -0.0613032
0.0216        1.04285 4.06924e-20 -0.0612419
0.0217        1.04159 4.07213e-20 -0.0611817
0.0218        1.04033 4.07502e-20 -0.0611226
0.0219        1.03908 4.07789e-20 -0.0610646
0.022         1.03782 4.08078e-20 -0.0610077
0.0221        1.03657 4.08365e-20 -0.0609519
0.0222        1.03531 4.08651e-20 -0.0608974
0.0223        1.03406 4.08937e-20 -0.060844
0.0224        1.03281 4.09222e-20 -0.0607918
0.0225        1.03156 4.09507e-20 -0.0607409
0.0226        1.03032 4.09791e-20 -0.0606913
0.0227        1.02907 4.10074e-20 -0.060643
0.0228        1.02782 4.10357e-20 -0.060596
0.0229        1.02658 4.10639e-20 -0.0605503
0.023         1.02534 4.10924e-20 -0.060506
0.0231        1.0241 4.11206e-20 -0.0604631
0.0232        1.02286 4.11487e-20 -0.0604215
0.0233        1.02162 4.11768e-20 -0.0603814
0.0234        1.02038 4.12049e-20 -0.0603427
0.0235        1.01914 4.1233e-20 -0.0603054
0.0236        1.01791 4.12612e-20 -0.0602696
0.0237        1.01667 4.12894e-20 -0.0602353
0.0238        1.01544 4.13175e-20 -0.0602024
0.0239        1.0142 4.13459e-20 -0.060171
0.024         1.01297 4.1374e-20 -0.060141
0.0241        1.01174 4.1402e-20 -0.0601125
0.0242        1.01051 4.14305e-20 -0.0600855
0.0243        1.00928 4.14587e-20 -0.06006
0.0244        1.00805 4.14871e-20 -0.060036
0.0245        1.00682 4.15156e-20 -0.0600134
0.0246        1.00559 4.15441e-20 -0.0599923
0.0247        1.00437 4.15724e-20 -0.0599726
0.0248        1.00314 4.1601e-20 -0.0599544
0.0249        1.00192 4.16297e-20 -0.0599375
0.025         1.00069 4.16585e-20 -0.0599221
0.0251        0.999468 4.16873e-20 -0.059908
0.0252        0.998244 4.17162e-20 -0.0598953
0.0253        0.997021 4.17452e-20 -0.059884
0.0254        0.995798 4.17742e-20 -0.0598739
0.0255        0.994576 4.18035e-20 -0.0598651
0.0256        0.993355 4.18326e-20 -0.0598575
0.0257        0.992134 4.18617e-20 -0.0598511
0.0258        0.990913 4.18912e-20 -0.0598459
0.0259        0.989693 4.19208e-20 -0.0598418
0.026         0.988474 4.19506e-20 -0.0598388
0.0261        0.987255 4.19804e-20 -0.0598369
0.0262        0.986036 4.20104e-20 -0.0598359
0.0263        0.984818 4.20405e-20 -0.0598358
0.0264        0.9836 4.20708e-20 -0.0598367
0.0265        0.982383 4.21013e-20 -0.0598384
0.0266        0.981166 4.21319e-20 -0.0598408
0.0267        0.97995 4.21628e-20 -0.059844
0.0268        0.978734 4.21937e-20 -0.0598478
0.0269        0.977518 4.22246e-20 -0.0598523
0.027         0.976303 4.22558e-20 -0.0598572
0.0271        0.975089 4.22873e-20 -0.0598627
0.0272        0.973875 4.23189e-20 -0.0598685
0.0273        0.972661 4.23508e-20 -0.0598747
0.0274        0.971448 4.23827e-20 -0.0598811
0.0275        0.970236 4.24148e-20 -0.0598878
0.0276        0.969024 4.24472e-20 -0.0598946
0.0277        0.967813 4.24798e-20 -0.0599014
0.0278        0.966602 4.25123e-20 -0.0599082
0.0279        0.965392 4.25452e-20 -0.0599149
0.028         0.964183 4.25782e-20 -0.0599214
0.0281        0.962975 4.26116e-20 -0.0599277
0.0282        0.961767 4.26451e-20 -0.0599337
0.0283        0.96056 4.26786e-20 -0.0599393
0.0284        0.959354 4.27124e-20 -0.0599444
0.0285        0.958148 4.27464e-20 -0.059949
0.0286        0.956944 4.27806e-20 -0.0599529
0.0287        0.955741 4.28149e-20 -0.0599561
0.0288        0.954538 4.28495e-20 -0.0599586
0.0289        0.953337 4.28843e-20 -0.0599602
0.029         0.952136 4.29191e-20 -0.0599608
0.0291        0.950937 4.29541e-20 -0.0599605
0.0292        0.949739 4.29893e-20 -0.0599591
0.0293        0.948543 4.30248e-20 -0.0599566
0.0294        0.947347 4.30605e-20 -0.0599528
0.0295        0.946153 4.30964e-20 -0.0599478
0.0296        0.94496 4.31324e-20 -0.0599413
0.0297        0.943769 4.31686e-20 -0.0599335
0.0298        0.942579 4.32049e-20 -0.0599242
0.0299        0.941391 4.32413e-20 -0.0599133
0.03          0.940205 4.3278e-20 -0.0599008
0.0301        0.93902 4.33147e-20 -0.0598866
0.0302        0.937837 4.33517e-20 -0.0598707
0.0303        0.936656 4.33889e-20 -0.059853
0.0304        0.935477 4.34262e-20 -0.0598335
0.0305        0.934299 4.34637e-20 -0.059812
0.0306        0.933124 4.35012e-20 -0.0597886
0.0307        0.931951 4.35389e-20 -0.0597631
0.0308        0.93078 4.35767e-20 -0.0597357
0.0309        0.929611 4.36146e-20 -0.0597061
0.031         0.928444 4.36526e-20 -0.0596744
0.0311        0.92728 4.36907e-20 -0.0596405
0.0312        0.926118 4.37289e-20 -0.0596043
0.0313        0.924959 4.37673e-20 -0.059566
0.0314        0.923802 4.38058e-20 -0.0595253
0.0315        0.922647 4.38443e-20 -0.0594823
0.0316        0.921496 4.38829e-20 -0.059437
0.0317        0.920347 4.39216e-20 -0.0593893
0.0318        0.919201 4.39602e-20 -0.0593392
0.0319        0.918057 4.39988e-20 -0.0592866
0.032         0.916917 4.40376e-20 -0.0592317
0.0321        0.91578 4.40764e-20 -0.0591743
0.0322        0.914645 4.41154e-20 -0.0591144
0.0323        0.913514 4.41543e-20 -0.059052
0.0324        0.912386 4.41931e-20 -0.0589872
0.0325        0.911261 4.42321e-20 -0.0589198
0.0326        0.910139 4.42711e-20 -0.05885
0.0327        0.909021 4.43101e-20 -0.0587776
0.0328        0.907906 4.43491e-20 -0.0587028
0.0329        0.906794 4.43882e-20 -0.0586255
0.033         0.905686 4.44274e-20 -0.0585457
0.0331        0.904582 4.44664e-20 -0.0584634
0.0332        0.903481 4.45054e-20 -0.0583787
0.0333        0.902384 4.45443e-20 -0.0582914
0.0334        0.90129 4.45833e-20 -0.0582018
0.0335        0.9002 4.46221e-20 -0.0581097
0.0336        0.899114 4.46608e-20 -0.0580152
0.0337        0.898032 4.46993e-20 -0.0579183
0.0338        0.896954 4.4738e-20 -0.057819
0.0339        0.89588 4.47768e-20 -0.0577174
0.034         0.894809 4.48153e-20 -0.0576135
0.0341        0.893743 4.48537e-20 -0.0575072
0.0342        0.892681 4.48919e-20 -0.0573987
0.0343        0.891623 4.493e-20 -0.0572879
0.0344        0.890569 4.4968e-20 -0.0571749
0.0345        0.889519 4.50065e-20 -0.0570598
0.0346        0.888473 4.50446e-20 -0.0569425
0.0347        0.887432 4.50825e-20 -0.0568231
0.0348        0.886395 4.51202e-20 -0.0567016
0.0349        0.885362 4.51579e-20 -0.0565781
0.035         0.884334 4.51953e-20 -0.0564526
0.0351        0.88331 4.52325e-20 -0.0563251
0.0352        0.88229 4.52696e-20 -0.0561957
0.0353        0.881275 4.53068e-20 -0.0560644
0.0354        0.880264 4.53439e-20 -0.0559313
0.0355        0.879258 4.53802e-20 -0.0557964
0.0356        0.878256 4.5417e-20 -0.0556598
0.0357        0.877259 4.54533e-20 -0.0555214
0.0358        0.876266 4.54892e-20 -0.0553814
0.0359        0.875278 4.55254e-20 -0.0552398
0.036         0.874295 4.55611e-20 -0.0550967
0.0361        0.873316 4.55965e-20 -0.054952
0.0362        0.872342 4.5632e-20 -0.0548058
0.0363        0.871372 4.56674e-20 -0.0546583
0.0364        0.870407 4.57024e-20 -0.0545093
0.0365        0.869447 4.57372e-20 -0.0543591
0.0366        0.868492 4.57718e-20 -0.0542075
0.0367        0.867541 4.58064e-20 -0.0540547
0.0368        0.866595 4.58405e-20 -0.0539008
0.0369        0.865653 4.58745e-20 -0.0537457
0.037         0.864717 4.59083e-20 -0.0535896
0.0371        0.863785 4.59421e-20 -0.0534324
0.0372        0.862858 4.59754e-20 -0.0532742
0.0373        0.861935 4.60084e-20 -0.0531151
0.0374        0.861018 4.60411e-20 -0.0529552
0.0375        0.860105 4.60738e-20 -0.0527944
0.0376        0.859197 4.61064e-20 -0.0526328
0.0377        0.858293 4.61385e-20 -0.0524704
0.0378        0.857395 4.61706e-20 -0.0523074
0.0379        0.856501 4.62023e-20 -0.0521437
0.038         0.855612 4.62342e-20 -0.0519794
0.0381        0.854728 4.62656e-20 -0.0518146
0.0382        0.853849 4.62964e-20 -0.0516493
0.0383        0.852974 4.6327e-20 -0.0514835
0.0384        0.852104 4.63575e-20 -0.0513173
0.0385        0.851239 4.63881e-20 -0.0511507
0.0386        0.850378 4.64182e-20 -0.0509838
0.0387        0.849523 4.6448e-20 -0.0508166
0.0388        0.848672 4.64774e-20 -0.0506492
0.0389        0.847826 4.65066e-20 -0.0504816
0.039         0.846984 4.6536e-20 -0.0503138
0.0391        0.846148 4.6565e-20 -0.0501459
0.0392        0.845316 4.65932e-20 -0.0499779
0.0393        0.844488 4.66214e-20 -0.0498099
0.0394        0.843666 4.66495e-20 -0.0496419
0.0395        0.842848 4.66779e-20 -0.0494739
0.0396        0.842035 4.67058e-20 -0.049306
0.0397        0.841226 4.67329e-20 -0.0491383
0.0398        0.840422 4.67599e-20 -0.0489706
0.0399        0.839623 4.67865e-20 -0.0488032
0.04          0.838828 4.68132e-20 -0.048636
0.0401        0.838038 4.68397e-20 -0.048469
0.0402        0.837253 4.68658e-20 -0.0483023
0.0403        0.836472 4.68915e-20 -0.0481359
0.0404        0.835695 4.6917e-20 -0.0479698
0.0405        0.834923 4.69422e-20 -0.0478042
0.0406        0.834156 4.69676e-20 -0.0476389
0.0407        0.833393 4.69931e-20 -0.047474
0.0408        0.832635 4.70179e-20 -0.0473097
0.0409        0.831881 4.70422e-20 -0.0471458
0.041         0.831132 4.70663e-20 -0.0469824
0.0411        0.830387 4.70902e-20 -0.0468196
0.0412        0.829647 4.71144e-20 -0.0466574
0.0413        0.828911 4.71381e-20 -0.0464958
0.0414        0.828179 4.71613e-20 -0.0463347
0.0415        0.827452 4.71842e-20 -0.0461743
0.0416        0.826729 4.72067e-20 -0.0460145
0.0417        0.826011 4.72292e-20 -0.0458554
0.0418        0.825296 4.72519e-20 -0.045697
0.0419        0.824586 4.72745e-20 -0.0455394
0.042         0.823881 4.72967e-20 -0.0453824
0.0421        0.823179 4.73182e-20 -0.0452262
0.0422        0.822482 4.73395e-20 -0.0450708
0.0423        0.821789 4.73606e-20 -0.0449162
0.0424        0.8211 4.73819e-20 -0.0447623
0.0425        0.820416 4.74031e-20 -0.0446092
0.0426        0.819735 4.74235e-20 -0.044457
0.0427        0.819059 4.74437e-20 -0.0443056
0.0428        0.818386 4.74637e-20 -0.0441551
0.0429        0.817718 4.74831e-20 -0.0440054
0.043         0.817054 4.75027e-20 -0.0438566
0.0431        0.816393 4.75238e-20 -0.0437087
0.0432        0.815737 4.75444e-20 -0.0435617
0.0433        0.815085 4.75638e-20 -0.0434156
0.0434        0.814437 4.7583e-20 -0.0432704
0.0435        0.813793 4.76019e-20 -0.0431261
0.0436        0.813152 4.76205e-20 -0.0429827
0.0437        0.812516 4.76391e-20 -0.0428402
0.0438        0.811883 4.76584e-20 -0.0426987
0.0439        0.811254 4.76758e-20 -0.0425581
0.044         0.810629 4.76941e-20 -0.0424184
0.0441        0.810008 4.7712e-20 -0.0422796
0.0442        0.809391 4.77297e-20 -0.0421419
0.0443        0.808777 4.77478e-20 -0.0420052
0.0444        0.808167 4.77649e-20 -0.0418694
0.0445        0.807561 4.7782e-20 -0.0417345
0.0446        0.806958 4.77996e-20 -0.0416007
0.0447        0.806359 4.78164e-20 -0.0414678
0.0448        0.805764 4.78325e-20 -0.0413358
0.0449        0.805172 4.78488e-20 -0.0412048
0.045         0.804584 4.78652e-20 -0.0410747
0.0451        0.803999 4.78813e-20 -0.0409456
0.0452        0.803418 4.78979e-20 -0.0408175
0.0453        0.802841 4.79136e-20 -0.0406904
0.0454        0.802267 4.79297e-20 -0.0405642
0.0455        0.801696 4.79455e-20 -0.040439
0.0456        0.801129 4.79609e-20 -0.0403148
0.0457        0.800565 4.79755e-20 -0.0401916
0.0458        0.800004 4.79897e-20 -0.0400692
0.0459        0.799447 4.80035e-20 -0.0399478
0.046         0.798893 4.80203e-20 -0.0398273
0.0461        0.798342 4.80368e-20 -0.0397078
0.0462        0.797795 4.8052e-20 -0.0395893
0.0463        0.797251 4.80658e-20 -0.0394716
0.0464        0.796711 4.80806e-20 -0.0393549
0.0465        0.796173 4.80946e-20 -0.0392391
0.0466        0.795639 4.81099e-20 -0.0391242
0.0467        0.795108 4.81236e-20 -0.0390102
0.0468        0.79458 4.81374e-20 -0.0388972
0.0469        0.794055 4.8151e-20 -0.038785
0.047         0.793533 4.81651e-20 -0.0386738
0.0471        0.793014 4.81792e-20 -0.0385634
0.0472        0.792499 4.81924e-20 -0.038454
0.0473        0.791986 4.82052e-20 -0.0383455
0.0474        0.791476 4.82191e-20 -0.0382378
0.0475        0.79097 4.8232e-20 -0.0381309
0.0476        0.790466 4.82445e-20 -0.0380249
0.0477        0.789965 4.82573e-20 -0.0379197
0.0478        0.789467 4.82703e-20 -0.0378154
0.0479        0.788972 4.82834e-20 -0.0377121
0.048         0.78848 4.82959e-20 -0.0376096
0.0481        0.78799 4.83081e-20 -0.0375078
0.0482        0.787504 4.83195e-20 -0.0374069
0.0483        0.787019 4.83301e-20 -0.0373066
0.0484        0.786538 4.83432e-20 -0.0372072
0.0485        0.78606 4.83579e-20 -0.0371087
0.0486        0.785584 4.83702e-20 -0.037011
0.0487        0.785112 4.83822e-20 -0.0369141
0.0488        0.784641 4.83938e-20 -0.0368179
0.0489        0.784174 4.84047e-20 -0.0367224
0.049         0.783709 4.84172e-20 -0.0366277
0.0491        0.783247 4.84286e-20 -0.0365337
0.0492        0.782787 4.84386e-20 -0.0364406
0.0493        0.782329 4.84512e-20 -0.0363481
0.0494        0.781875 4.84645e-20 -0.0362565
0.0495        0.781423 4.8476e-20 -0.0361655
0.0496        0.780974 4.84871e-20 -0.0360752
0.0497        0.780527 4.84985e-20 -0.0359856
0.0498        0.780083 4.85097e-20 -0.0358967
0.0499        0.779641 4.8521e-20 -0.0358086
0.05          0.779202 4.85323e-20 -0.0357211
0.0501        0.778765 4.8543e-20 -0.0356344
0.0502        0.77833 4.85536e-20 -0.0355483
0.0503        0.777898 4.85638e-20 -0.0354629
0.0504        0.777468 4.85753e-20 -0.0353782
0.0505        0.777041 4.85856e-20 -0.0352942
0.0506        0.776616 4.85961e-20 -0.0352108
0.0507        0.776193 4.86059e-20 -0.035128
0.0508        0.775772 4.86162e-20 -0.0350458
0.0509        0.775354 4.86269e-20 -0.0349643
0.051         0.774937 4.86364e-20 -0.0348835
0.0511        0.774523 4.86461e-20 -0.0348034
0.0512        0.774111 4.86557e-20 -0.0347238
0.0513        0.773701 4.86657e-20 -0.0346447
0.0514        0.773294 4.8678e-20 -0.0345661
0.0515        0.772889 4.86886e-20 -0.0344882
0.0516        0.772486 4.86978e-20 -0.034411
0.0517        0.772085 4.87077e-20 -0.0343344
0.0518        0.771686 4.87181e-20 -0.0342583
0.0519        0.771289 4.87262e-20 -0.0341827
0.052         0.770894 4.87352e-20 -0.0341077
0.0521        0.770501 4.87465e-20 -0.0340333
0.0522        0.770111 4.87588e-20 -0.0339594
0.0523        0.769722 4.87673e-20 -0.0338859
0.0524        0.769336 4.8778e-20 -0.0338131
0.0525        0.768952 4.87862e-20 -0.0337407
0.0526        0.76857 4.87963e-20 -0.033669
0.0527        0.76819 4.88064e-20 -0.0335979
0.0528        0.767812 4.88155e-20 -0.0335271
0.0529        0.767435 4.88242e-20 -0.0334569
0.053         0.767061 4.88329e-20 -0.0333873
0.0531        0.766688 4.88422e-20 -0.0333183
0.0532        0.766318 4.88518e-20 -0.0332499
0.0533        0.765949 4.886e-20 -0.0331818
0.0534        0.765582 4.8869e-20 -0.0331143
0.0535        0.765217 4.88778e-20 -0.0330474
0.0536        0.764853 4.88856e-20 -0.032981
0.0537        0.764491 4.88942e-20 -0.0329149
0.0538        0.764131 4.89033e-20 -0.0328493
0.0539        0.763772 4.89122e-20 -0.0327844
0.054         0.763415 4.89199e-20 -0.03272
0.0541        0.763059 4.89279e-20 -0.0326559
0.0542        0.762706 4.89369e-20 -0.032592
0.0543        0.762354 4.8947e-20 -0.0325284
0.0544        0.762004 4.89562e-20 -0.0324652
0.0545        0.761656 4.89636e-20 -0.0324025
0.0546        0.761309 4.89733e-20 -0.0323401
0.0547        0.760964 4.89827e-20 -0.0322781
0.0548        0.760621 4.89916e-20 -0.0322164
0.0549        0.76028 4.8999e-20 -0.0321549
0.055         0.75994 4.90069e-20 -0.0320941
0.0551        0.759601 4.90141e-20 -0.0320337
0.0552        0.759264 4.90229e-20 -0.0319737
0.0553        0.758929 4.9031e-20 -0.031914
0.0554        0.758595 4.9039e-20 -0.0318546
0.0555        0.758262 4.90461e-20 -0.031796
0.0556        0.757931 4.90539e-20 -0.0317376
0.0557        0.757601 4.90635e-20 -0.0316794
0.0558        0.757274 4.90728e-20 -0.0316208
0.0559        0.756948 4.90805e-20 -0.0315629
0.056         0.756627 4.90903e-20 -0.0315049
0.0561        0.756307 4.91005e-20 -0.0314469
0.0562        0.755988 4.91086e-20 -0.0313906
0.0563        0.75567 4.91158e-20 -0.0313352
0.0564        0.755356 4.91247e-20 -0.0312812
0.0565        0.755042 4.91307e-20 -0.0312274
0.0566        0.754729 4.91372e-20 -0.0311738
0.0567        0.754417 4.91456e-20 -0.0311209
0.0568        0.754104 4.91531e-20 -0.0310692
0.0569        0.753793 4.91615e-20 -0.0310174
0.057         0.753484 4.91721e-20 -0.0309653
0.0571        0.753176 4.91788e-20 -0.0309134
0.0572        0.752869 4.9187e-20 -0.0308615
0.0573        0.752564 4.91946e-20 -0.0308098
0.0574        0.752261 4.92005e-20 -0.0307581
0.0575        0.751959 4.92076e-20 -0.0307065
0.0576        0.751658 4.92171e-20 -0.030655
0.0577        0.751359 4.92246e-20 -0.0306034
0.0578        0.751062 4.92332e-20 -0.0305521
0.0579        0.750765 4.92405e-20 -0.0305011
0.058         0.75047 4.92471e-20 -0.0304505
0.0581        0.750177 4.92536e-20 -0.0304002
0.0582        0.749884 4.92603e-20 -0.0303503
0.0583        0.749593 4.92684e-20 -0.030301
0.0584        0.749304 4.92758e-20 -0.030252
0.0585        0.749016 4.9284e-20 -0.0302031
0.0586        0.748729 4.92909e-20 -0.0301547
0.0587        0.748443 4.92989e-20 -0.0301066
0.0588        0.748158 4.93062e-20 -0.0300587
0.0589        0.747874 4.93134e-20 -0.0300112
0.059         0.747592 4.9321e-20 -0.0299637
0.0591        0.74731 4.93279e-20 -0.0299166
0.0592        0.74703 4.93345e-20 -0.0298698
0.0593        0.74675 4.93413e-20 -0.0298239
0.0594        0.746471 4.93478e-20 -0.0297782
0.0595        0.746193 4.93542e-20 -0.0297327
0.0596        0.745917 4.9361e-20 -0.0296874
0.0597        0.745642 4.93679e-20 -0.0296425
0.0598        0.745367 4.93755e-20 -0.0295976
0.0599        0.745094 4.93834e-20 -0.0295528
0.06          0.744822 4.93905e-20 -0.0295082
0.0601        0.744551 4.93967e-20 -0.0294638
0.0602        0.744282 4.94031e-20 -0.0294197
0.0603        0.744013 4.94108e-20 -0.0293756
0.0604        0.743746 4.94179e-20 -0.0293318
0.0605        0.743479 4.94248e-20 -0.0292882
0.0606        0.743214 4.94313e-20 -0.0292448
0.0607        0.74295 4.94374e-20 -0.0292018
0.0608        0.742686 4.94435e-20 -0.0291589
0.0609        0.742424 4.94498e-20 -0.0291163
0.061         0.742163 4.94558e-20 -0.0290739
0.0611        0.741903 4.9462e-20 -0.0290318
0.0612        0.741645 4.94684e-20 -0.0289899
0.0613        0.741387 4.94743e-20 -0.0289485
0.0614        0.74113 4.94818e-20 -0.028907
0.0615        0.740874 4.94902e-20 -0.0288645
0.0616        0.740619 4.94964e-20 -0.0288221
0.0617        0.740365 4.95036e-20 -0.0287804
0.0618        0.740111 4.95128e-20 -0.0287381
0.0619        0.739857 4.95237e-20 -0.0286934
0.062         0.739602 4.95299e-20 -0.0286493
0.0621        0.739349 4.95356e-20 -0.0286049
0.0622        0.739097 4.95426e-20 -0.0285599
0.0623        0.738846 4.95513e-20 -0.0285134
0.0624        0.738596 4.9558e-20 -0.0284685
0.0625        0.738346 4.95655e-20 -0.0284264
0.0626        0.738097 4.95716e-20 -0.0283851
0.0627        0.737849 4.95781e-20 -0.0283443
0.0628        0.737603 4.95844e-20 -0.0283037
0.0629        0.737358 4.95911e-20 -0.0282634
0.063         0.737113 4.95982e-20 -0.0282232
0.0631        0.73687 4.96057e-20 -0.0281843
0.0632        0.73663 4.96133e-20 -0.0281483
0.0633        0.736391 4.96194e-20 -0.0281121
0.0634        0.736153 4.96255e-20 -0.0280761
0.0635        0.735916 4.96318e-20 -0.0280414
0.0636        0.73568 4.96383e-20 -0.0280071
0.0637        0.735445 4.96452e-20 -0.0279729
0.0638        0.73521 4.96518e-20 -0.0279386
0.0639        0.734976 4.96584e-20 -0.0279045
0.064         0.734743 4.96648e-20 -0.0278702
0.0641        0.73451 4.96721e-20 -0.027836
0.0642        0.734278 4.9678e-20 -0.0278018
0.0643        0.734047 4.96853e-20 -0.0277676
0.0644        0.733817 4.96906e-20 -0.0277336
0.0645        0.733587 4.96962e-20 -0.0277027
0.0646        0.733359 4.97023e-20 -0.0276715
0.0647        0.733131 4.97094e-20 -0.0276399
0.0648        0.732904 4.97153e-20 -0.0276082
0.0649        0.732677 4.9722e-20 -0.0275763
0.065         0.732452 4.97266e-20 -0.0275441
0.0651        0.732227 4.97332e-20 -0.0275115
0.0652        0.732003 4.97387e-20 -0.0274787
0.0653        0.731779 4.97458e-20 -0.0274459
0.0654        0.731557 4.97519e-20 -0.0274129
0.0655        0.731335 4.97589e-20 -0.02738
0.0656        0.731114 4.97648e-20 -0.0273472
0.0657        0.730894 4.97723e-20 -0.0273145
0.0658        0.730674 4.97784e-20 -0.0272815
0.0659        0.730455 4.97855e-20 -0.0272486
0.066         0.730237 4.97917e-20 -0.0272158