/*--------------------------------*- C++ -*----------------------------------*\
| =========                 |                                                 |
| \\      /  F ield         | OpenFOAM: The Open Source CFD Toolbox           |
|  \\    /   O peration     | Version:  2412                                  |
|   \\  /    A nd           | Website:  www.openfoam.com                      |
|    \\/     M anipulation  |                                                 |
\*---------------------------------------------------------------------------*/
FoamFile
{
    version     2.0;
    format      ascii;
    arch        "LSB;label=32;scalar=64";
    class       volScalarField;
    location    "0.6";
    object      p;
}
// * * * * * * * * * * * * * * * * * * * * * * * * * * * * * * * * * * * * * //

dimensions      [0 2 -2 0 0 0 0];

internalField   nonuniform List<scalar> 
257400
(
0.278625
0.104439
-0.0562544
-0.188182
-0.289075
-0.361137
-0.41033
-0.441085
-0.460716
-0.472907
-0.479564
-0.482837
-0.483078
-0.482321
-0.479326
-0.47626
-0.471834
-0.46772
-0.463333
-0.458712
-0.454036
-0.449296
-0.444961
-0.440214
-0.435828
-0.431223
-0.426819
-0.422471
-0.41805
-0.413925
-0.40964
-0.405659
-0.401754
-0.397739
-0.393753
-0.389888
-0.385975
-0.382281
-0.378663
-0.375045
-0.371421
-0.367794
-0.364331
-0.360846
-0.357409
-0.354114
-0.350863
-0.347637
-0.344378
-0.341178
-0.338099
-0.335048
-0.331968
-0.328906
-0.325964
-0.323051
-0.320138
-0.317193
-0.314367
-0.311577
-0.308745
-0.306002
-0.30332
-0.300667
-0.297996
-0.295327
-0.292754
-0.290143
-0.287705
-0.285119
-0.282662
-0.280239
-0.277785
-0.275396
-0.272988
-0.270654
-0.268318
-0.266022
-0.263774
-0.261546
0.287058
0.160327
0.0265541
-0.0953888
-0.20118
-0.286696
-0.352009
-0.397813
-0.429302
-0.450333
-0.463467
-0.471159
-0.474681
-0.476331
-0.475436
-0.473787
-0.470722
-0.467303
-0.463439
-0.459218
-0.454812
-0.450185
-0.445987
-0.441283
-0.437006
-0.432516
-0.428193
-0.423935
-0.41959
-0.415481
-0.411222
-0.407252
-0.403332
-0.399373
-0.395363
-0.391462
-0.387621
-0.38387
-0.380182
-0.376507
-0.372917
-0.369293
-0.365775
-0.362271
-0.358804
-0.355427
-0.352102
-0.348837
-0.345554
-0.342315
-0.339172
-0.336064
-0.332947
-0.329845
-0.326854
-0.323923
-0.320993
-0.318004
-0.31515
-0.312336
-0.309465
-0.30668
-0.303954
-0.301251
-0.298543
-0.295842
-0.293203
-0.290556
-0.288025
-0.285419
-0.282897
-0.280416
-0.277923
-0.275487
-0.273044
-0.270664
-0.268291
-0.265955
-0.26366
-0.261379
0.306126
0.205118
0.087674
-0.0226748
-0.126412
-0.217551
-0.292933
-0.350597
-0.392878
-0.422788
-0.442939
-0.456265
-0.464053
-0.468698
-0.470035
-0.469966
-0.468101
-0.465556
-0.462423
-0.458801
-0.454899
-0.450651
-0.44662
-0.442272
-0.438033
-0.433579
-0.429232
-0.424948
-0.420593
-0.41652
-0.412324
-0.408334
-0.404345
-0.400316
-0.396335
-0.392516
-0.388595
-0.38482
-0.381121
-0.377479
-0.373809
-0.370143
-0.366613
-0.363078
-0.359575
-0.356181
-0.352835
-0.349545
-0.346238
-0.342963
-0.339799
-0.336713
-0.333581
-0.330436
-0.327425
-0.324429
-0.32146
-0.318462
-0.315545
-0.312686
-0.309796
-0.306969
-0.304199
-0.301466
-0.298734
-0.296007
-0.293353
-0.290675
-0.288134
-0.285501
-0.282957
-0.280456
-0.277939
-0.275481
-0.273013
-0.27061
-0.268212
-0.265847
-0.263523
-0.261201
0.318418
0.238317
0.148885
0.0452413
-0.051268
-0.141606
-0.222707
-0.290305
-0.34364
-0.383972
-0.413091
-0.433529
-0.446875
-0.455762
-0.46039
-0.462757
-0.462767
-0.461595
-0.459488
-0.456642
-0.453354
-0.449554
-0.445872
-0.441779
-0.437814
-0.43367
-0.429535
-0.425423
-0.421049
-0.417028
-0.41294
-0.408924
-0.404937
-0.400925
-0.397033
-0.39326
-0.38933
-0.385554
-0.381858
-0.37822
-0.374535
-0.370867
-0.367332
-0.363786
-0.360262
-0.356841
-0.353461
-0.350145
-0.346822
-0.343534
-0.340371
-0.337213
-0.334057
-0.330903
-0.327828
-0.32481
-0.321826
-0.318804
-0.315865
-0.312987
-0.310073
-0.307219
-0.304422
-0.301664
-0.298908
-0.296154
-0.293476
-0.290766
-0.288202
-0.285541
-0.28297
-0.280446
-0.277901
-0.275421
-0.272927
-0.2705
-0.268076
-0.265684
-0.263332
-0.260972
0.321966
0.2567
0.182626
0.0953325
0.0118003
-0.0717763
-0.151769
-0.223811
-0.284985
-0.334507
-0.372749
-0.401329
-0.421514
-0.435904
-0.445034
-0.450847
-0.453556
-0.454401
-0.453835
-0.452182
-0.449848
-0.446791
-0.443674
-0.440052
-0.436445
-0.432588
-0.428682
-0.4248
-0.420727
-0.416839
-0.41273
-0.408747
-0.404821
-0.400932
-0.397101
-0.393363
-0.389483
-0.38574
-0.382072
-0.37844
-0.374785
-0.371125
-0.367599
-0.364061
-0.360534
-0.357107
-0.353712
-0.350375
-0.347044
-0.34374
-0.340556
-0.337397
-0.334242
-0.331077
-0.327996
-0.324965
-0.321969
-0.318933
-0.315977
-0.313085
-0.310155
-0.307283
-0.304468
-0.301692
-0.298921
-0.296148
-0.293455
-0.290723
-0.288142
-0.285464
-0.282871
-0.280329
-0.277765
-0.275267
-0.272752
-0.270305
-0.26786
-0.265443
-0.26307
-0.260676
0.319891
0.266072
0.206789
0.141373
0.0607577
-0.0142307
-0.0880791
-0.159085
-0.22342
-0.278897
-0.324536
-0.360764
-0.388128
-0.408635
-0.42307
-0.433203
-0.439452
-0.44305
-0.444637
-0.444671
-0.443678
-0.441686
-0.439391
-0.436454
-0.433389
-0.43
-0.426476
-0.422909
-0.419103
-0.415386
-0.411531
-0.407623
-0.403925
-0.400143
-0.396382
-0.392727
-0.388943
-0.385272
-0.381663
-0.378076
-0.374479
-0.370858
-0.367369
-0.363863
-0.360363
-0.356957
-0.353574
-0.350214
-0.346884
-0.343581
-0.340387
-0.337244
-0.334102
-0.330944
-0.327862
-0.324827
-0.32183
-0.318795
-0.315833
-0.312937
-0.310003
-0.307124
-0.304301
-0.301515
-0.298739
-0.295956
-0.293256
-0.290512
-0.287921
-0.285234
-0.282627
-0.280076
-0.277499
-0.274988
-0.272461
-0.269999
-0.26754
-0.265104
-0.262718
-0.260297
0.314776
0.269537
0.219854
0.163951
0.0994991
0.0315159
-0.0349307
-0.10124
-0.164552
-0.222257
-0.272473
-0.31455
-0.348245
-0.37475
-0.39468
-0.409566
-0.419966
-0.426965
-0.431304
-0.433548
-0.43433
-0.433776
-0.432608
-0.43062
-0.428313
-0.425573
-0.422582
-0.419466
-0.416057
-0.412655
-0.409118
-0.405459
-0.401942
-0.398319
-0.394699
-0.391179
-0.387533
-0.383977
-0.380466
-0.376966
-0.373457
-0.369913
-0.366487
-0.363044
-0.3596
-0.356239
-0.352885
-0.349517
-0.346195
-0.34291
-0.339731
-0.336634
-0.333535
-0.330406
-0.327345
-0.324324
-0.321342
-0.318324
-0.315371
-0.312484
-0.309561
-0.306688
-0.303868
-0.301086
-0.298314
-0.295533
-0.292837
-0.290093
-0.2875
-0.284816
-0.282204
-0.27965
-0.277071
-0.274556
-0.272024
-0.269555
-0.26709
-0.264644
-0.262253
-0.259816
0.308021
0.269264
0.227143
0.180675
0.128357
0.0651653
0.00680115
-0.0529439
-0.11223
-0.168894
-0.220676
-0.266187
-0.304542
-0.336101
-0.361137
-0.380679
-0.395369
-0.406123
-0.413659
-0.418568
-0.421536
-0.422792
-0.423063
-0.422297
-0.420976
-0.419078
-0.416793
-0.414261
-0.411289
-0.40831
-0.405212
-0.401941
-0.398694
-0.395325
-0.39192
-0.388591
-0.385137
-0.381743
-0.378374
-0.375004
-0.37162
-0.368193
-0.364864
-0.361517
-0.358164
-0.354889
-0.351632
-0.348379
-0.345051
-0.341731
-0.338543
-0.335511
-0.332478
-0.329403
-0.326383
-0.323396
-0.320446
-0.317462
-0.314535
-0.311671
-0.308775
-0.305924
-0.303122
-0.300355
-0.297602
-0.294837
-0.292155
-0.289426
-0.28684
-0.284171
-0.281566
-0.27902
-0.276448
-0.273939
-0.271412
-0.268946
-0.266485
-0.264037
-0.261653
-0.25921
0.300485
0.266824
0.230683
0.191236
0.147616
0.0993648
0.0399753
-0.0141199
-0.0679678
-0.121415
-0.172293
-0.218893
-0.25994
-0.295103
-0.324288
-0.347989
-0.366694
-0.381136
-0.392022
-0.39987
-0.405334
-0.408708
-0.410702
-0.411411
-0.411298
-0.410438
-0.409048
-0.407346
-0.405318
-0.402761
-0.399844
-0.396993
-0.394122
-0.391086
-0.387971
-0.384894
-0.381686
-0.378503
-0.375322
-0.372124
-0.368906
-0.365636
-0.362437
-0.359218
-0.355986
-0.352813
-0.349647
-0.346484
-0.343263
-0.340009
-0.33673
-0.333787
-0.330858
-0.327876
-0.324926
-0.321995
-0.319096
-0.316167
-0.313284
-0.310459
-0.307607
-0.304793
-0.302024
-0.299287
-0.296567
-0.293832
-0.291177
-0.288476
-0.285908
-0.283267
-0.280682
-0.278154
-0.275603
-0.27311
-0.270601
-0.268147
-0.265701
-0.263263
-0.260897
-0.258459
0.292647
0.263047
0.231592
0.197521
0.159882
0.117692
0.0699576
0.017554
-0.031745
-0.0808994
-0.129156
-0.174953
-0.216867
-0.254074
-0.286166
-0.313164
-0.335349
-0.353142
-0.367177
-0.377971
-0.386064
-0.391756
-0.395694
-0.398085
-0.399375
-0.399709
-0.399294
-0.398335
-0.397175
-0.395215
-0.392967
-0.390676
-0.388236
-0.385605
-0.382855
-0.380087
-0.377178
-0.374254
-0.371305
-0.368321
-0.365307
-0.362232
-0.359197
-0.356138
-0.353056
-0.350013
-0.346971
-0.343929
-0.340845
-0.33775
-0.334665
-0.331515
-0.328651
-0.325802
-0.322954
-0.320102
-0.317274
-0.314418
-0.311597
-0.308826
-0.306034
-0.303274
-0.300552
-0.297859
-0.295185
-0.292495
-0.289881
-0.287222
-0.284684
-0.282084
-0.279531
-0.277033
-0.274513
-0.272047
-0.269568
-0.267138
-0.264719
-0.262303
-0.259965
-0.257546
0.284784
0.258467
0.230755
0.200957
0.16827
0.132082
0.0919125
0.0460058
-0.0020436
-0.0472949
-0.0920149
-0.135657
-0.17696
-0.214807
-0.248556
-0.277845
-0.30275
-0.323397
-0.340238
-0.353705
-0.36433
-0.37238
-0.378381
-0.382595
-0.385435
-0.387106
-0.38799
-0.388303
-0.387354
-0.386226
-0.384782
-0.383065
-0.381121
-0.378966
-0.37664
-0.374235
-0.371672
-0.369052
-0.366376
-0.363644
-0.360867
-0.358019
-0.355181
-0.352309
-0.349405
-0.346519
-0.343624
-0.340726
-0.33779
-0.334833
-0.33187
-0.328833
-0.325857
-0.323126
-0.320427
-0.317703
-0.314978
-0.312216
-0.309474
-0.306773
-0.304055
-0.301363
-0.298704
-0.296068
-0.293452
-0.290822
-0.288258
-0.285655
-0.283158
-0.280611
-0.278103
-0.275644
-0.273168
-0.270741
-0.268303
-0.265908
-0.263527
-0.261144
-0.258843
-0.256457
0.277053
0.253436
0.228779
0.202478
0.173846
0.142256
0.107282
0.0686897
0.0253208
-0.0194024
-0.0609634
-0.101627
-0.141164
-0.178483
-0.212766
-0.243362
-0.270168
-0.293043
-0.312246
-0.328068
-0.340924
-0.351167
-0.359215
-0.365315
-0.369839
-0.37314
-0.375185
-0.375975
-0.376212
-0.376076
-0.375374
-0.374291
-0.372926
-0.371299
-0.369443
-0.367448
-0.365273
-0.362996
-0.360629
-0.358182
-0.355672
-0.353078
-0.350464
-0.347803
-0.345101
-0.342394
-0.339668
-0.336931
-0.334162
-0.331377
-0.328608
-0.325836
-0.322991
-0.320046
-0.317379
-0.314815
-0.312231
-0.309586
-0.306939
-0.304322
-0.301691
-0.299079
-0.296494
-0.293928
-0.291381
-0.288821
-0.286319
-0.283783
-0.281337
-0.278853
-0.2764
-0.273992
-0.271569
-0.26919
-0.266803
-0.264453
-0.262121
-0.259781
-0.257527
-0.255186
0.269545
0.248177
0.226046
0.20261
0.17725
0.149361
0.11861
0.0847416
0.0480624
0.00753538
-0.0352038
-0.0731121
-0.110237
-0.145975
-0.179726
-0.210677
-0.238572
-0.263012
-0.284062
-0.301858
-0.316685
-0.328872
-0.338769
-0.346643
-0.352927
-0.357508
-0.360586
-0.362763
-0.364154
-0.364853
-0.364928
-0.364559
-0.36382
-0.362757
-0.361411
-0.359866
-0.358111
-0.356209
-0.354181
-0.352048
-0.349828
-0.347511
-0.345143
-0.342714
-0.340231
-0.337724
-0.335184
-0.332625
-0.330035
-0.327419
-0.3248
-0.322158
-0.319484
-0.316767
-0.313953
-0.31148
-0.30906
-0.306564
-0.304034
-0.301512
-0.298978
-0.296458
-0.293956
-0.291468
-0.289
-0.286519
-0.284087
-0.281627
-0.279241
-0.276827
-0.274438
-0.272088
-0.269728
-0.267405
-0.265078
-0.262781
-0.260505
-0.258219
-0.256019
-0.253732
0.262308
0.242835
0.222814
0.201754
0.179095
0.154278
0.126997
0.0969592
0.0643482
0.0296443
-0.00705223
-0.0478775
-0.0843266
-0.117998
-0.150425
-0.180774
-0.208904
-0.234203
-0.25654
-0.275887
-0.292331
-0.30627
-0.317827
-0.327269
-0.334836
-0.340752
-0.345317
-0.348754
-0.351157
-0.352752
-0.353676
-0.354052
-0.353968
-0.3535
-0.352696
-0.351632
-0.350323
-0.348822
-0.347159
-0.34536
-0.343452
-0.341428
-0.339325
-0.337145
-0.334896
-0.332602
-0.330264
-0.327895
-0.325489
-0.323049
-0.320591
-0.318111
-0.31561
-0.31308
-0.310542
-0.307809
-0.305492
-0.303178
-0.300798
-0.298391
-0.295965
-0.293544
-0.291133
-0.288731
-0.286347
-0.283952
-0.281597
-0.279219
-0.2769
-0.274562
-0.272244
-0.269958
-0.267666
-0.265406
-0.263145
-0.260909
-0.258695
-0.256469
-0.254327
-0.252103
0.255362
0.237505
0.219265
0.2002
0.179799
0.157546
0.133148
0.106316
0.0771114
0.0456963
0.0126682
-0.0208863
-0.0567506
-0.0929376
-0.125461
-0.154761
-0.182445
-0.207836
-0.230825
-0.251319
-0.268702
-0.283422
-0.296392
-0.307384
-0.316279
-0.323583
-0.329446
-0.334013
-0.337464
-0.340014
-0.341797
-0.342932
-0.343529
-0.343681
-0.34344
-0.34288
-0.342037
-0.340958
-0.339678
-0.338233
-0.336652
-0.334935
-0.333111
-0.331192
-0.32919
-0.327122
-0.324996
-0.322826
-0.320613
-0.318357
-0.316071
-0.313758
-0.311421
-0.309059
-0.306689
-0.304289
-0.301669
-0.299458
-0.297249
-0.294994
-0.292699
-0.290387
-0.288072
-0.285762
-0.283467
-0.281163
-0.278889
-0.276597
-0.27435
-0.272092
-0.269849
-0.267633
-0.265413
-0.26322
-0.261029
-0.258858
-0.25671
-0.254551
-0.25247
-0.250315
0.248717
0.232248
0.215528
0.198153
0.179656
0.159559
0.137587
0.113452
0.0871555
0.0587602
0.0286114
-0.00287085
-0.0348457
-0.0657916
-0.0969828
-0.127984
-0.156044
-0.181709
-0.204919
-0.225676
-0.244759
-0.261531
-0.275634
-0.287623
-0.297724
-0.306195
-0.313169
-0.318822
-0.323316
-0.326808
-0.329445
-0.331352
-0.332646
-0.333432
-0.333769
-0.33373
-0.333367
-0.332724
-0.331843
-0.330766
-0.329524
-0.328125
-0.326591
-0.324944
-0.323197
-0.321365
-0.319459
-0.317497
-0.315482
-0.313415
-0.311306
-0.309162
-0.30699
-0.304789
-0.302574
-0.300342
-0.29811
-0.29569
-0.293474
-0.291373
-0.289229
-0.287037
-0.284824
-0.282609
-0.280406
-0.278195
-0.276005
-0.273801
-0.271631
-0.269454
-0.267289
-0.265145
-0.263
-0.260877
-0.258759
-0.256656
-0.254577
-0.252486
-0.250467
-0.248384
0.242367
0.227103
0.211691
0.19576
0.178884
0.160618
0.140704
0.118865
0.0950681
0.0693258
0.0418312
0.012983
-0.0167235
-0.0467511
-0.0766289
-0.105277
-0.132523
-0.158101
-0.181833
-0.203529
-0.223004
-0.240158
-0.255083
-0.268106
-0.27929
-0.2888
-0.296788
-0.303438
-0.3089
-0.313293
-0.316771
-0.319447
-0.321442
-0.322867
-0.323788
-0.324281
-0.324408
-0.324212
-0.323741
-0.323041
-0.322148
-0.321074
-0.31984
-0.318473
-0.316987
-0.315398
-0.31372
-0.311972
-0.31016
-0.308286
-0.306358
-0.304385
-0.302379
-0.300338
-0.298271
-0.296174
-0.294037
-0.291852
-0.289621
-0.287589
-0.285595
-0.283538
-0.281434
-0.279318
-0.277208
-0.27509
-0.272987
-0.270872
-0.26878
-0.266686
-0.2646
-0.262529
-0.26046
-0.258409
-0.256364
-0.25433
-0.25232
-0.2503
-0.248344
-0.246334
0.236306
0.222095
0.207817
0.193131
0.177644
0.160946
0.142792
0.12292
0.101273
0.0778402
0.0527424
0.0262612
-0.00132024
-0.0293798
-0.0574225
-0.0849183
-0.111559
-0.136759
-0.160301
-0.181997
-0.201715
-0.219454
-0.235196
-0.249086
-0.261162
-0.27159
-0.280505
-0.28806
-0.294394
-0.29963
-0.303912
-0.307337
-0.310022
-0.312084
-0.313591
-0.314618
-0.315239
-0.315496
-0.315441
-0.315126
-0.314588
-0.313845
-0.312918
-0.311836
-0.310618
-0.309277
-0.307832
-0.306303
-0.304698
-0.30302
-0.301276
-0.299478
-0.297638
-0.295757
-0.293838
-0.291883
-0.289902
-0.287891
-0.285852
-0.283677
-0.281806
-0.279901
-0.277928
-0.275921
-0.273908
-0.271884
-0.269867
-0.267841
-0.26583
-0.263818
-0.261812
-0.259816
-0.257823
-0.255843
-0.253871
-0.251908
-0.249966
-0.248017
-0.246123
-0.244185
0.230523
0.217237
0.20395
0.190346
0.176059
0.160712
0.144074
0.125897
0.106109
0.0846813
0.0616871
0.0373336
0.011859
-0.0142393
-0.0406536
-0.0668738
-0.0924921
-0.117001
-0.140173
-0.161798
-0.181718
-0.199865
-0.216155
-0.230695
-0.243507
-0.254728
-0.264456
-0.272822
-0.279955
-0.285965
-0.290994
-0.295131
-0.298485
-0.301169
-0.303254
-0.304814
-0.305927
-0.306639
-0.307003
-0.307075
-0.306897
-0.306489
-0.305872
-0.30508
-0.304133
-0.303045
-0.301837
-0.30053
-0.299135
-0.297656
-0.296098
-0.294477
-0.292806
-0.291085
-0.289319
-0.287513
-0.28568
-0.28382
-0.281943
-0.280057
-0.27797
-0.276148
-0.274324
-0.272443
-0.270533
-0.268605
-0.266677
-0.264739
-0.26281
-0.26088
-0.258953
-0.257032
-0.255114
-0.253207
-0.251307
-0.249414
-0.247539
-0.24566
-0.243827
-0.241959
0.225004
0.212538
0.200122
0.187463
0.17422
0.160045
0.14472
0.128012
0.109841
0.0901623
0.0690229
0.0465785
0.023004
-0.00131775
-0.0261227
-0.0509316
-0.0754118
-0.0991169
-0.12178
-0.143163
-0.163065
-0.181388
-0.198026
-0.213055
-0.226459
-0.238337
-0.248762
-0.257843
-0.265696
-0.272415
-0.278132
-0.282931
-0.286917
-0.2902
-0.292847
-0.29493
-0.29653
-0.297693
-0.298475
-0.298936
-0.299118
-0.299046
-0.298742
-0.298241
-0.297568
-0.296735
-0.295767
-0.294685
-0.293502
-0.292223
-0.290855
-0.289412
-0.287911
-0.286353
-0.28474
-0.283081
-0.281389
-0.279666
-0.277914
-0.276127
-0.274306
-0.272388
-0.270657
-0.268905
-0.267107
-0.265277
-0.263438
-0.261589
-0.259741
-0.257893
-0.256045
-0.254199
-0.252356
-0.25052
-0.248691
-0.246867
-0.245059
-0.243248
-0.241475
-0.239675
0.219735
0.208
0.196354
0.184526
0.172198
0.159045
0.144865
0.129438
0.112678
0.0945339
0.0750302
0.0542843
0.032421
0.00975581
-0.0134921
-0.0369179
-0.0602386
-0.0830408
-0.105049
-0.126019
-0.145731
-0.164068
-0.180899
-0.196264
-0.210113
-0.222516
-0.233524
-0.243221
-0.251709
-0.259065
-0.265412
-0.270824
-0.2754
-0.279249
-0.282434
-0.285023
-0.287098
-0.288704
-0.2899
-0.290746
-0.291287
-0.29155
-0.291559
-0.291351
-0.290951
-0.290375
-0.289648
-0.288792
-0.287823
-0.286746
-0.285567
-0.284305
-0.282975
-0.281579
-0.28012
-0.278608
-0.277055
-0.275465
-0.273836
-0.272172
-0.27047
-0.268735
-0.266989
-0.265334
-0.263648
-0.261918
-0.26017
-0.258408
-0.256643
-0.254875
-0.253106
-0.251335
-0.249566
-0.247801
-0.246042
-0.244286
-0.242543
-0.240799
-0.239085
-0.23735
0.214704
0.203622
0.192662
0.181569
0.170047
0.157792
0.144615
0.130309
0.114788
0.0979943
0.0799362
0.0607041
0.040388
0.0192485
-0.00254197
-0.0246389
-0.0467924
-0.0686309
-0.0898913
-0.110333
-0.129728
-0.147941
-0.164821
-0.180377
-0.194536
-0.207341
-0.218821
-0.229037
-0.238074
-0.245994
-0.252908
-0.258881
-0.264004
-0.26838
-0.272072
-0.275145
-0.277678
-0.279715
-0.281315
-0.28254
-0.283435
-0.284031
-0.28435
-0.284433
-0.284307
-0.283988
-0.283502
-0.282873
-0.282118
-0.281242
-0.280255
-0.279173
-0.278014
-0.276781
-0.275476
-0.274111
-0.272698
-0.271242
-0.26974
-0.2682
-0.266622
-0.265
-0.263313
-0.261747
-0.260165
-0.25854
-0.256885
-0.255211
-0.253527
-0.25184
-0.250148
-0.248452
-0.246756
-0.245062
-0.243372
-0.241683
-0.240004
-0.238325
-0.236668
-0.234997
0.209897
0.199403
0.189055
0.178616
0.167806
0.156344
0.144051
0.130733
0.116304
0.100703
0.0839276
0.0660466
0.0471246
0.0273771
0.00694011
-0.0138908
-0.0348993
-0.0557565
-0.0762172
-0.0960495
-0.115024
-0.132998
-0.149803
-0.165426
-0.179774
-0.192868
-0.204714
-0.215353
-0.224853
-0.233263
-0.240681
-0.24716
-0.252784
-0.257649
-0.261814
-0.265343
-0.268312
-0.270764
-0.272756
-0.27435
-0.275592
-0.276514
-0.27714
-0.277512
-0.277657
-0.277592
-0.277346
-0.276943
-0.276402
-0.275728
-0.274931
-0.274031
-0.273042
-0.271972
-0.270822
-0.269604
-0.26833
-0.267008
-0.265635
-0.264217
-0.262764
-0.261278
-0.259768
-0.258169
-0.25667
-0.255153
-0.253593
-0.252006
-0.250405
-0.248798
-0.247184
-0.245562
-0.243938
-0.242314
-0.240691
-0.239068
-0.237453
-0.235837
-0.234237
-0.232626
0.2053
0.195337
0.18554
0.175685
0.16551
0.154751
0.143241
0.130796
0.117334
0.102791
0.0871566
0.0704829
0.052816
0.0343358
0.0151497
-0.00448965
-0.0243967
-0.0442808
-0.0639166
-0.083086
-0.101565
-0.119207
-0.135836
-0.15142
-0.165851
-0.17913
-0.191244
-0.202217
-0.212099
-0.220926
-0.228781
-0.23571
-0.241787
-0.2471
-0.251705
-0.25566
-0.25904
-0.261885
-0.264253
-0.266203
-0.267783
-0.269024
-0.26995
-0.270606
-0.271018
-0.271205
-0.271197
-0.271019
-0.270689
-0.270216
-0.269609
-0.268889
-0.268071
-0.267163
-0.266167
-0.265096
-0.263962
-0.262773
-0.261527
-0.260232
-0.258898
-0.257523
-0.256097
-0.254615
-0.253187
-0.251764
-0.250301
-0.248803
-0.247284
-0.245756
-0.244218
-0.242671
-0.241119
-0.239564
-0.238008
-0.23645
-0.234897
-0.233343
-0.2318
-0.230247
0.200901
0.191421
0.182121
0.17279
0.163182
0.153049
0.142235
0.130568
0.117964
0.104364
0.0897475
0.0741555
0.0576197
0.0402919
0.0222564
0.00372949
-0.01513
-0.0340657
-0.0528729
-0.0713496
-0.0892815
-0.106524
-0.122896
-0.138352
-0.152774
-0.166145
-0.17844
-0.189662
-0.199849
-0.209021
-0.217252
-0.224575
-0.231055
-0.236774
-0.241782
-0.246132
-0.249896
-0.253113
-0.255837
-0.258128
-0.260033
-0.261583
-0.262802
-0.263734
-0.264408
-0.264844
-0.26507
-0.265113
-0.264993
-0.264719
-0.2643
-0.263759
-0.263111
-0.262364
-0.261521
-0.260596
-0.259601
-0.258545
-0.257426
-0.256252
-0.255034
-0.25377
-0.252463
-0.251122
-0.249719
-0.24838
-0.247013
-0.245606
-0.244169
-0.242721
-0.241259
-0.239785
-0.238304
-0.236817
-0.235328
-0.233835
-0.232343
-0.230849
-0.229362
-0.227866
0.19669
0.187648
0.178798
0.16994
0.160841
0.15127
0.141078
0.130103
0.118267
0.105507
0.091803
0.0771829
0.0616676
0.0453873
0.0284076
0.0109141
-0.00695716
-0.0249804
-0.0429709
-0.0607439
-0.0780968
-0.0948899
-0.110942
-0.126199
-0.140534
-0.153919
-0.166314
-0.17771
-0.188128
-0.197581
-0.206125
-0.213787
-0.220621
-0.226703
-0.232076
-0.236789
-0.24091
-0.244474
-0.247535
-0.25015
-0.252365
-0.254211
-0.255713
-0.256914
-0.257844
-0.258521
-0.258977
-0.259238
-0.259325
-0.259247
-0.259014
-0.258649
-0.25817
-0.257583
-0.256892
-0.256112
-0.255255
-0.254331
-0.253338
-0.252284
-0.251181
-0.250029
-0.248831
-0.247589
-0.246302
-0.245013
-0.243734
-0.242418
-0.241066
-0.239696
-0.238309
-0.236908
-0.235498
-0.23408
-0.232656
-0.231226
-0.229795
-0.228361
-0.226929
-0.225488
0.192654
0.184014
0.175573
0.167142
0.158503
0.149436
0.139802
0.129448
0.118299
0.106293
0.0934083
0.0796634
0.0650706
0.0497428
0.0337307
0.0171943
0.000249807
-0.0169038
-0.0341006
-0.0511725
-0.0679302
-0.084241
-0.0999264
-0.114927
-0.129112
-0.142443
-0.154869
-0.166369
-0.176955
-0.186624
-0.195425
-0.203372
-0.210513
-0.216915
-0.222616
-0.227659
-0.232107
-0.235994
-0.23937
-0.24229
-0.244799
-0.246928
-0.248701
-0.250162
-0.251339
-0.252252
-0.252932
-0.253406
-0.253695
-0.253809
-0.25376
-0.253569
-0.253255
-0.252826
-0.252286
-0.251649
-0.25093
-0.250136
-0.249268
-0.248334
-0.247345
-0.246303
-0.24521
-0.244074
-0.242897
-0.241663
-0.24047
-0.239244
-0.237976
-0.236684
-0.235373
-0.234044
-0.232704
-0.231353
-0.229995
-0.228628
-0.227257
-0.225882
-0.224505
-0.223118
0.188785
0.180512
0.172444
0.164402
0.156178
0.147566
0.138435
0.12864
0.118108
0.106781
0.094634
0.0816795
0.0679225
0.0534614
0.0383358
0.0226838
0.00660499
-0.00972537
-0.0261583
-0.042542
-0.0587004
-0.0745092
-0.0897954
-0.104496
-0.118479
-0.131699
-0.144097
-0.155642
-0.166334
-0.176164
-0.185167
-0.19335
-0.200752
-0.207433
-0.213423
-0.218763
-0.223509
-0.227693
-0.231361
-0.234567
-0.237353
-0.23975
-0.241782
-0.243491
-0.244907
-0.246048
-0.246946
-0.247627
-0.248114
-0.248416
-0.248546
-0.248527
-0.248376
-0.248102
-0.247711
-0.247215
-0.246631
-0.245967
-0.245222
-0.244406
-0.24353
-0.242597
-0.241608
-0.240573
-0.239496
-0.238378
-0.23723
-0.236088
-0.234905
-0.23369
-0.232453
-0.231196
-0.229926
-0.228642
-0.227348
-0.226043
-0.224732
-0.223414
-0.222092
-0.220759
0.185071
0.177136
0.16941
0.161723
0.153877
0.145677
0.137
0.127709
0.117735
0.10702
0.0955391
0.0833001
0.0703021
0.0566307
0.0423175
0.027482
0.0122095
-0.00334521
-0.0190486
-0.0347637
-0.0503281
-0.065626
-0.0804914
-0.0948603
-0.108602
-0.121664
-0.133984
-0.145521
-0.156268
-0.166205
-0.175361
-0.183733
-0.191353
-0.198271
-0.204516
-0.210119
-0.215135
-0.219589
-0.223527
-0.226998
-0.230044
-0.232694
-0.234971
-0.236917
-0.238561
-0.239921
-0.241029
-0.241911
-0.24259
-0.243075
-0.243381
-0.243529
-0.243538
-0.243417
-0.243171
-0.242815
-0.242364
-0.241827
-0.241204
-0.240505
-0.239741
-0.238915
-0.238029
-0.237093
-0.236113
-0.235084
-0.234007
-0.232956
-0.231854
-0.230716
-0.229552
-0.228366
-0.227165
-0.225947
-0.224717
-0.223474
-0.222221
-0.220961
-0.219693
-0.218412
0.181504
0.173882
0.16647
0.159106
0.151604
0.143779
0.135514
0.126681
0.11721
0.10705
0.0961732
0.0845834
0.072276
0.0593256
0.0457572
0.0316751
0.0171524
0.00232603
-0.0126843
-0.0277554
-0.0427375
-0.0575239
-0.0719563
-0.0859713
-0.0994401
-0.112308
-0.124508
-0.135992
-0.146747
-0.156747
-0.16601
-0.174528
-0.182325
-0.189443
-0.195907
-0.201742
-0.206998
-0.211697
-0.215881
-0.219598
-0.222885
-0.225772
-0.228281
-0.230451
-0.232312
-0.233882
-0.235191
-0.236267
-0.237132
-0.237795
-0.238272
-0.238582
-0.238747
-0.238776
-0.238673
-0.238454
-0.238134
-0.237722
-0.237219
-0.236634
-0.235981
-0.23526
-0.234477
-0.233639
-0.232752
-0.231808
-0.230792
-0.22984
-0.228819
-0.227761
-0.226672
-0.225556
-0.224423
-0.223271
-0.222104
-0.220921
-0.219727
-0.218524
-0.217309
-0.21608
0.178077
0.170743
0.16362
0.156554
0.149367
0.141883
0.133993
0.125575
0.116563
0.106906
0.0965776
0.0855786
0.0739008
0.0616098
0.048725
0.0353382
0.0215121
0.00736793
-0.00698668
-0.0214412
-0.0358576
-0.0501381
-0.0641327
-0.0777796
-0.0909537
-0.103598
-0.115643
-0.127038
-0.137762
-0.147783
-0.157114
-0.165738
-0.173673
-0.180957
-0.187605
-0.193641
-0.199109
-0.204029
-0.208436
-0.212377
-0.215888
-0.218996
-0.221721
-0.224104
-0.22617
-0.22794
-0.229442
-0.230704
-0.231747
-0.232583
-0.233224
-0.233694
-0.234011
-0.234185
-0.234222
-0.234136
-0.233945
-0.233656
-0.233271
-0.232799
-0.232254
-0.231637
-0.230954
-0.230212
-0.229421
-0.228589
-0.227728
-0.226751
-0.225802
-0.224827
-0.223814
-0.222768
-0.221702
-0.220615
-0.21951
-0.218388
-0.217252
-0.216104
-0.214943
-0.213765
0.174781
0.167714
0.160858
0.154065
0.147167
0.139997
0.132449
0.124409
0.115814
0.106616
0.0967874
0.0863272
0.0752248
0.063538
0.0512814
0.0385365
0.0253572
0.0118511
-0.00188495
-0.0157516
-0.0296222
-0.0434072
-0.056965
-0.0702362
-0.0831001
-0.0954989
-0.107363
-0.118637
-0.129295
-0.139303
-0.148665
-0.15736
-0.165399
-0.172814
-0.179617
-0.185825
-0.191478
-0.196592
-0.201201
-0.205347
-0.209063
-0.212375
-0.215302
-0.217883
-0.220144
-0.222103
-0.223789
-0.225229
-0.226443
-0.227444
-0.228246
-0.228869
-0.229333
-0.229649
-0.229821
-0.229867
-0.229801
-0.229632
-0.229362
-0.229002
-0.228563
-0.228049
-0.227463
-0.226817
-0.226119
-0.225372
-0.224563
-0.223686
-0.222819
-0.22192
-0.22098
-0.220004
-0.219004
-0.217981
-0.216938
-0.215876
-0.214796
-0.213704
-0.212595
-0.211468
0.171608
0.16479
0.158182
0.151641
0.145009
0.138125
0.130891
0.123197
0.114983
0.106204
0.0968321
0.0868646
0.0762891
0.0651568
0.0534785
0.0413266
0.0287479
0.0158381
0.00268431
-0.0106241
-0.0239706
-0.0372737
-0.0504002
-0.0632933
-0.0758375
-0.0879749
-0.0996361
-0.110764
-0.121329
-0.131293
-0.140654
-0.149388
-0.157501
-0.165017
-0.171945
-0.178298
-0.18411
-0.189395
-0.194183
-0.198513
-0.202416
-0.205916
-0.209031
-0.211798
-0.214241
-0.216378
-0.218239
-0.219848
-0.221226
-0.222386
-0.223341
-0.224112
-0.224719
-0.225172
-0.225477
-0.22565
-0.225706
-0.225654
-0.225498
-0.225245
-0.224911
-0.224497
-0.224008
-0.223455
-0.222845
-0.222179
-0.221455
-0.220681
-0.219871
-0.21904
-0.218171
-0.217264
-0.21633
-0.21537
-0.214388
-0.213384
-0.212362
-0.211324
-0.210267
-0.209191
0.168553
0.161966
0.155587
0.149281
0.142893
0.136273
0.129327
0.12195
0.114086
0.105691
0.0967368
0.0872208
0.0771289
0.0665066
0.0553613
0.0437578
0.031737
0.0193841
0.00677768
-0.00600171
-0.0188471
-0.0316842
-0.0443881
-0.0569049
-0.0691245
-0.0809898
-0.0924323
-0.103393
-0.113842
-0.123736
-0.133069
-0.141815
-0.149972
-0.157562
-0.164588
-0.17106
-0.177008
-0.182441
-0.187388
-0.191882
-0.195955
-0.199626
-0.202914
-0.205853
-0.208467
-0.210772
-0.212797
-0.214567
-0.216102
-0.217413
-0.218515
-0.219429
-0.220173
-0.220759
-0.221192
-0.221488
-0.221663
-0.221726
-0.221679
-0.221533
-0.221301
-0.220985
-0.22059
-0.220128
-0.219604
-0.219023
-0.218386
-0.217697
-0.216951
-0.216189
-0.215391
-0.214551
-0.213681
-0.212784
-0.211862
-0.210916
-0.209949
-0.208965
-0.20796
-0.206933
0.165609
0.159238
0.153073
0.146983
0.140821
0.134445
0.127764
0.120679
0.113136
0.105092
0.0965227
0.0874216
0.0777744
0.0676218
0.0569687
0.045873
0.0343707
0.0225378
0.0104456
-0.00183359
-0.0142012
-0.0265898
-0.0388821
-0.0510276
-0.0629214
-0.074508
-0.0857203
-0.0964991
-0.106811
-0.116614
-0.125896
-0.134628
-0.142806
-0.150444
-0.157544
-0.164111
-0.170171
-0.175732
-0.180817
-0.185458
-0.189683
-0.19351
-0.196957
-0.200055
-0.202827
-0.20529
-0.20747
-0.209391
-0.211074
-0.21253
-0.213773
-0.214823
-0.2157
-0.216413
-0.21697
-0.217386
-0.217676
-0.21785
-0.21791
-0.217867
-0.217735
-0.217514
-0.217212
-0.216838
-0.216401
-0.215903
-0.215345
-0.214731
-0.214061
-0.213371
-0.21264
-0.211866
-0.211059
-0.210223
-0.20936
-0.208472
-0.20756
-0.206628
-0.205674
-0.204696
0.16277
0.156601
0.150635
0.144747
0.138795
0.132644
0.126207
0.119391
0.112144
0.104424
0.0962081
0.0874889
0.0782515
0.0685325
0.0583346
0.0477096
0.0366894
0.0253423
0.0137328
0.00192609
-0.00998702
-0.0219453
-0.0338388
-0.0456203
-0.0571903
-0.068495
-0.0794692
-0.090054
-0.100215
-0.109908
-0.119119
-0.127817
-0.135992
-0.143656
-0.150808
-0.157449
-0.163601
-0.169269
-0.174473
-0.179243
-0.183603
-0.187571
-0.191162
-0.194407
-0.197326
-0.199935
-0.20226
-0.204324
-0.206147
-0.207741
-0.209117
-0.210298
-0.211301
-0.212138
-0.212814
-0.213345
-0.213747
-0.214028
-0.214193
-0.21425
-0.214215
-0.214088
-0.213876
-0.213589
-0.213235
-0.212818
-0.212337
-0.211799
-0.211204
-0.210584
-0.209918
-0.209209
-0.208465
-0.207689
-0.206884
-0.206052
-0.205194
-0.204315
-0.203411
-0.202482
0.160031
0.154051
0.148271
0.14257
0.136814
0.130871
0.124661
0.118093
0.111119
0.103699
0.0958084
0.0874416
0.0785827
0.0692645
0.0594882
0.0493003
0.0387289
0.0278356
0.0166791
0.00531834
-0.00616318
-0.0177097
-0.0292184
-0.040645
-0.0518953
-0.0629178
-0.0736491
-0.0840312
-0.0940293
-0.103598
-0.112722
-0.121366
-0.12952
-0.137191
-0.144374
-0.151068
-0.157293
-0.163049
-0.168355
-0.173237
-0.177717
-0.181811
-0.185533
-0.188911
-0.191965
-0.194711
-0.197171
-0.19937
-0.201325
-0.203048
-0.204552
-0.205857
-0.206982
-0.207936
-0.208727
-0.209369
-0.209878
-0.210264
-0.21053
-0.210685
-0.210743
-0.210707
-0.210583
-0.210381
-0.210109
-0.209771
-0.209367
-0.208905
-0.208382
-0.207826