/*--------------------------------*- C++ -*----------------------------------*\
| =========                 |                                                 |
| \\      /  F ield         | OpenFOAM: The Open Source CFD Toolbox           |
|  \\    /   O peration     | Version:  2406                                  |
|   \\  /    A nd           | Website:  www.openfoam.com                      |
|    \\/     M anipulation  |                                                 |
\*---------------------------------------------------------------------------*/
FoamFile
{
    version     2.0;
    format      ascii;
    arch        "LSB;label=32;scalar=64";
    class       volScalarField;
    location    "12.99375";
    object      p;
}
// * * * * * * * * * * * * * * * * * * * * * * * * * * * * * * * * * * * * * //

dimensions      [0 2 -2 0 0 0 0];

internalField   nonuniform List<scalar> 
30000
(
1.89292e-12
6.06498e-12
8.4464e-12
1.00258e-11
1.1181e-11
1.20887e-11
1.28283e-11
1.34589e-11
1.39964e-11
1.44669e-11
1.48841e-11
1.52572e-11
1.55968e-11
1.5899e-11
1.61833e-11
1.64436e-11
1.66823e-11
1.69054e-11
1.71116e-11
1.73088e-11
1.74966e-11
1.7669e-11
1.78311e-11
1.79917e-11
1.81471e-11
1.82913e-11
1.84306e-11
1.85617e-11
1.86951e-11
1.88229e-11
1.8945e-11
1.90669e-11
1.91826e-11
1.92949e-11
1.9412e-11
1.95214e-11
1.96311e-11
1.97379e-11
1.98439e-11
1.99507e-11
2.005e-11
2.01583e-11
2.02579e-11
2.03561e-11
2.04589e-11
2.05519e-11
2.06456e-11
2.07404e-11
2.08255e-11
2.09067e-11
2.09946e-11
2.10806e-11
2.1167e-11
2.12445e-11
2.13101e-11
2.13807e-11
2.14425e-11
2.15054e-11
2.15708e-11
2.16278e-11
2.1691e-11
2.17626e-11
2.18278e-11
2.18901e-11
2.19568e-11
2.20095e-11
2.20658e-11
2.21211e-11
2.21717e-11
2.22313e-11
2.22887e-11
2.23335e-11
2.23812e-11
2.24382e-11
2.24843e-11
2.25159e-11
2.25628e-11
2.26078e-11
2.26396e-11
2.26708e-11
2.27045e-11
2.2733e-11
2.27555e-11
2.27881e-11
2.28256e-11
2.28478e-11
2.28776e-11
2.29165e-11
2.29388e-11
2.29645e-11
2.29922e-11
2.30142e-11
2.30476e-11
2.30852e-11
2.31177e-11
2.31544e-11
2.31821e-11
2.3215e-11
2.32581e-11
2.32991e-11
2.33368e-11
2.33733e-11
2.34173e-11
2.34596e-11
2.34958e-11
2.35373e-11
2.3565e-11
2.35888e-11
2.36123e-11
2.36402e-11
2.36739e-11
2.37042e-11
2.37257e-11
2.37419e-11
2.37691e-11
2.38041e-11
2.38275e-11
2.38361e-11
2.38477e-11
2.38724e-11
2.38954e-11
2.39161e-11
2.39384e-11
2.39683e-11
2.3995e-11
2.40045e-11
2.40244e-11
2.40532e-11
2.40705e-11
2.40886e-11
2.4108e-11
2.41187e-11
2.41255e-11
2.41505e-11
2.41658e-11
2.41674e-11
2.41786e-11
2.41938e-11
2.42045e-11
2.42245e-11
2.4254e-11
2.42677e-11
2.42661e-11
2.42704e-11
2.42921e-11
2.43035e-11
2.43108e-11
2.43351e-11
2.4353e-11
2.43672e-11
2.43879e-11
2.43967e-11
2.43959e-11
2.4414e-11
2.44166e-11
2.4422e-11
2.4435e-11
2.44387e-11
2.44377e-11
2.44405e-11
2.44532e-11
2.44639e-11
2.44615e-11
2.44524e-11
2.44452e-11
2.44326e-11
2.44204e-11
2.44128e-11
2.43838e-11
2.4372e-11
2.43746e-11
2.43522e-11
2.43432e-11
2.43574e-11
2.43472e-11
2.43307e-11
2.43145e-11
2.43082e-11
2.43003e-11
2.42818e-11
2.42702e-11
2.4256e-11
2.42342e-11
2.42125e-11
2.41775e-11
2.41684e-11
2.41592e-11
2.41401e-11
2.41275e-11
2.41176e-11
2.41023e-11
2.40835e-11
2.40573e-11
2.40195e-11
2.39997e-11
2.39853e-11
2.39658e-11
2.39509e-11
2.39456e-11
2.39226e-11
2.38882e-11
2.38642e-11
2.38342e-11
2.38123e-11
2.37989e-11
2.37885e-11
2.37749e-11
2.37407e-11
2.37105e-11
2.3686e-11
2.36546e-11
2.36393e-11
2.3617e-11
2.35805e-11
2.35653e-11
2.35419e-11
2.35081e-11
2.348e-11
2.3446e-11
2.34156e-11
2.34001e-11
2.33824e-11
2.33453e-11
2.33035e-11
2.32536e-11
2.32186e-11
2.31851e-11
2.31497e-11
2.31282e-11
2.31103e-11
2.30948e-11
2.30716e-11
2.30247e-11
2.29844e-11
2.2947e-11
2.28996e-11
2.28633e-11
2.28302e-11
2.2803e-11
2.27593e-11
2.27157e-11
2.26719e-11
2.26021e-11
2.25397e-11
2.24922e-11
2.24256e-11
2.23481e-11
2.22833e-11
2.22132e-11
2.21427e-11
2.20558e-11
2.19653e-11
2.18782e-11
2.18181e-11
2.17421e-11
2.16485e-11
2.15724e-11
2.14878e-11
2.13719e-11
2.12693e-11
2.11557e-11
2.10492e-11
2.09597e-11
2.08415e-11
2.07326e-11
2.06167e-11
2.04956e-11
2.03987e-11
2.02583e-11
2.01101e-11
2.00108e-11
1.9877e-11
1.9718e-11
1.9559e-11
1.93796e-11
1.92243e-11
1.90302e-11
1.88208e-11
1.86317e-11
1.84462e-11
1.82291e-11
1.79965e-11
1.77523e-11
1.75013e-11
1.72394e-11
1.69418e-11
1.66581e-11
1.63345e-11
1.59566e-11
1.55754e-11
1.51748e-11
1.47088e-11
1.41972e-11
1.36176e-11
1.29352e-11
1.21873e-11
1.12869e-11
1.00919e-11
8.48563e-12
6.0934e-12
6.66721e-12
7.87384e-12
9.25161e-12
1.04448e-11
1.14291e-11
1.22552e-11
1.29456e-11
1.35465e-11
1.40607e-11
1.45226e-11
1.49243e-11
1.52935e-11
1.56301e-11
1.59242e-11
1.62015e-11
1.64583e-11
1.66964e-11
1.69211e-11
1.7126e-11
1.73201e-11
1.75066e-11
1.76767e-11
1.78387e-11
1.79985e-11
1.81524e-11
1.83019e-11
1.84335e-11
1.85629e-11
1.86986e-11
1.88262e-11
1.89455e-11
1.9069e-11
1.91891e-11
1.93024e-11
1.94115e-11
1.95226e-11
1.9633e-11
1.97394e-11
1.98437e-11
1.9953e-11
2.00514e-11
2.01558e-11
2.02585e-11
2.03598e-11
2.04602e-11
2.05541e-11
2.06486e-11
2.07431e-11
2.08273e-11
2.09085e-11
2.09957e-11
2.10849e-11
2.11669e-11
2.12469e-11
2.1321e-11
2.13848e-11
2.1442e-11
2.15068e-11
2.15669e-11
2.16294e-11
2.16934e-11
2.17618e-11
2.18288e-11
2.18904e-11
2.19588e-11
2.20158e-11
2.2065e-11
2.2123e-11
2.21728e-11
2.22276e-11
2.22877e-11
2.23374e-11
2.2386e-11
2.244e-11
2.24876e-11
2.25223e-11
2.25646e-11
2.26035e-11
2.26434e-11
2.2677e-11
2.27129e-11
2.27349e-11
2.27577e-11
2.27923e-11
2.28205e-11
2.28509e-11
2.28854e-11
2.2912e-11
2.29409e-11
2.29655e-11
2.29874e-11
2.30141e-11
2.30481e-11
2.30874e-11
2.31188e-11
2.31478e-11
2.31773e-11
2.32146e-11
2.326e-11
2.33013e-11
2.33324e-11
2.33754e-11
2.34189e-11
2.34586e-11
2.35017e-11
2.35344e-11
2.35621e-11
2.35941e-11
2.36159e-11
2.36449e-11
2.36749e-11
2.36982e-11
2.37285e-11
2.37456e-11
2.37724e-11
2.38042e-11
2.3821e-11
2.38325e-11
2.38484e-11
2.38769e-11
2.39001e-11
2.39172e-11
2.39447e-11
2.39708e-11
2.39856e-11
2.40067e-11
2.40271e-11
2.4049e-11
2.40694e-11
2.40864e-11
2.41074e-11
2.41212e-11
2.41318e-11
2.41516e-11
2.41617e-11
2.4168e-11
2.418e-11
2.41943e-11
2.42063e-11
2.42268e-11
2.42469e-11
2.42634e-11
2.4267e-11
2.42709e-11
2.42965e-11
2.43111e-11
2.43107e-11
2.43273e-11
2.43506e-11
2.43752e-11
2.43928e-11
2.43992e-11
2.44005e-11
2.44116e-11
2.44139e-11
2.44257e-11
2.44261e-11
2.44363e-11
2.44497e-11
2.44471e-11
2.44493e-11
2.44629e-11
2.44578e-11
2.44588e-11
2.44487e-11
2.4437e-11
2.44236e-11
2.44013e-11
2.439e-11
2.43751e-11
2.43626e-11
2.43608e-11
2.43503e-11
2.43472e-11
2.43499e-11
2.43367e-11
2.4314e-11
2.43119e-11
2.43079e-11
2.42815e-11
2.42624e-11
2.42537e-11
2.4236e-11
2.42162e-11
2.41825e-11
2.41684e-11
2.41534e-11
2.41445e-11
2.41253e-11
2.41191e-11
2.41024e-11
2.40769e-11
2.40539e-11
2.40236e-11
2.40115e-11
2.39875e-11
2.39683e-11
2.39593e-11
2.39386e-11
2.39106e-11
2.38913e-11
2.38657e-11
2.38365e-11
2.38183e-11
2.38e-11
2.37848e-11
2.37732e-11
2.3745e-11
2.37134e-11
2.36819e-11
2.36524e-11
2.36328e-11
2.36109e-11
2.35906e-11
2.35633e-11
2.35392e-11
2.35099e-11
2.3484e-11
2.34509e-11
2.34242e-11
2.34043e-11
2.33714e-11
2.33375e-11
2.33004e-11
2.32561e-11
2.32191e-11
2.31891e-11
2.31512e-11
2.31346e-11
2.3119e-11
2.30885e-11
2.30595e-11
2.30306e-11
2.29878e-11
2.29421e-11
2.29075e-11
2.28706e-11
2.28387e-11
2.28011e-11
2.27571e-11
2.27149e-11
2.26686e-11
2.26175e-11
2.25505e-11
2.24877e-11
2.24297e-11
2.23547e-11
2.22784e-11
2.22075e-11
2.21329e-11
2.20624e-11
2.19737e-11
2.18914e-11
2.18224e-11
2.17419e-11
2.16565e-11
2.15691e-11
2.14845e-11
2.13768e-11
2.12744e-11
2.11617e-11
2.10541e-11
2.09508e-11
2.08488e-11
2.07334e-11
2.06248e-11
2.05004e-11
2.03901e-11
2.02712e-11
2.0128e-11
2.00043e-11
1.98802e-11
1.97273e-11
1.95648e-11
1.93957e-11
1.922e-11
1.90413e-11
1.8852e-11
1.86462e-11
1.84385e-11
1.82301e-11
1.80126e-11
1.77639e-11
1.751e-11
1.72545e-11
1.6972e-11
1.66771e-11
1.63576e-11
1.59877e-11
1.56199e-11
1.52147e-11
1.47547e-11
1.42584e-11
1.36982e-11
1.3064e-11
1.23567e-11
1.15184e-11
1.05038e-11
9.29348e-12
7.88401e-12
9.03885e-12
9.46706e-12
1.02396e-11
1.10731e-11
1.18395e-11
1.25356e-11
1.31584e-11
1.37058e-11
1.41852e-11
1.46238e-11
1.50131e-11
1.53601e-11
1.56825e-11
1.59691e-11
1.62511e-11
1.64921e-11
1.67274e-11
1.69429e-11
1.71508e-11
1.7343e-11
1.75244e-11
1.76894e-11
1.78539e-11
1.80119e-11
1.81677e-11
1.83058e-11
1.84347e-11
1.8573e-11
1.87104e-11
1.88307e-11
1.89414e-11
1.90789e-11
1.91955e-11
1.93148e-11
1.94166e-11
1.95218e-11
1.9634e-11
1.97343e-11
1.9845e-11
1.99527e-11
2.00504e-11
2.01644e-11
2.02606e-11
2.03547e-11
2.0466e-11
2.05635e-11
2.06607e-11
2.07482e-11
2.08284e-11
2.09106e-11
2.10053e-11
2.10885e-11
2.11757e-11
2.12566e-11
2.13249e-11
2.1386e-11
2.14461e-11
2.15077e-11
2.15666e-11
2.16261e-11
2.16901e-11
2.17649e-11
2.18271e-11
2.18918e-11
2.19598e-11
2.20202e-11
2.20687e-11
2.21251e-11
2.21744e-11
2.22275e-11
2.22899e-11
2.23412e-11
2.23815e-11
2.24397e-11
2.25003e-11
2.25258e-11
2.25639e-11
2.26147e-11
2.26507e-11
2.26791e-11
2.27187e-11
2.27416e-11
2.27608e-11
2.27918e-11
2.2824e-11
2.28521e-11
2.28937e-11
2.29217e-11
2.29453e-11
2.29642e-11
2.29786e-11
2.30061e-11
2.30389e-11
2.3086e-11
2.31176e-11
2.3144e-11
2.31771e-11
2.32129e-11
2.32566e-11
2.33009e-11
2.33348e-11
2.3371e-11
2.34211e-11
2.34609e-11
2.35036e-11
2.35422e-11
2.35706e-11
2.36074e-11
2.36268e-11
2.36424e-11
2.36738e-11
2.36946e-11
2.37228e-11
2.37483e-11
2.37795e-11
2.38118e-11
2.38292e-11
2.38295e-11
2.38474e-11
2.38659e-11
2.38944e-11
2.39177e-11
2.39469e-11
2.39704e-11
2.39851e-11
2.40074e-11
2.40325e-11
2.40524e-11
2.407e-11
2.40898e-11
2.41049e-11
2.41212e-11
2.41368e-11
2.41502e-11
2.41564e-11
2.4165e-11
2.41826e-11
2.41927e-11
2.42095e-11
2.42333e-11
2.42397e-11
2.42603e-11
2.42626e-11
2.42739e-11
2.42951e-11
2.43089e-11
2.43029e-11
2.43292e-11
2.43575e-11
2.43772e-11
2.43936e-11
2.44068e-11
2.44103e-11
2.4411e-11
2.44055e-11
2.44212e-11
2.44279e-11
2.44302e-11
2.44487e-11
2.44473e-11
2.44517e-11
2.44745e-11
2.44691e-11
2.44637e-11
2.44557e-11
2.44393e-11
2.44254e-11
2.44073e-11
2.43924e-11
2.43769e-11
2.43534e-11
2.43576e-11
2.43567e-11
2.4346e-11
2.43474e-11
2.43336e-11
2.43213e-11
2.43247e-11
2.43139e-11
2.42864e-11
2.42612e-11
2.42478e-11
2.4228e-11
2.42151e-11
2.41906e-11
2.41678e-11
2.41486e-11
2.41481e-11
2.41364e-11
2.41192e-11
2.41055e-11
2.40799e-11
2.40502e-11
2.40347e-11
2.40206e-11
2.39915e-11
2.39596e-11
2.39603e-11
2.39359e-11
2.391e-11
2.3895e-11
2.38732e-11
2.3853e-11
2.38326e-11
2.37993e-11
2.37849e-11
2.37805e-11
2.3743e-11
2.37132e-11
2.36753e-11
2.36474e-11
2.36317e-11
2.36106e-11
2.35892e-11
2.35703e-11
2.35428e-11
2.35087e-11
2.34883e-11
2.34546e-11
2.34263e-11
2.34066e-11
2.33705e-11
2.33418e-11
2.3291e-11
2.32557e-11
2.32206e-11
2.31845e-11
2.31664e-11
2.31381e-11
2.31263e-11
2.30865e-11
2.30505e-11
2.30326e-11
2.29924e-11
2.29455e-11
2.29095e-11
2.28743e-11
2.28562e-11
2.28171e-11
2.27581e-11
2.27083e-11
2.26715e-11
2.26222e-11
2.25624e-11
2.25088e-11
2.24397e-11
2.23688e-11
2.22859e-11
2.22094e-11
2.21337e-11
2.20661e-11
2.19792e-11
2.19037e-11
2.18251e-11
2.17407e-11
2.16685e-11
2.15801e-11
2.14855e-11
2.13888e-11
2.12883e-11
2.11705e-11
2.10547e-11
2.09486e-11
2.08566e-11
2.07357e-11
2.06317e-11
2.05108e-11
2.03825e-11
2.02855e-11
2.01514e-11
2.00162e-11
1.98842e-11
1.97427e-11
1.95824e-11
1.94204e-11
1.92225e-11
1.90522e-11
1.88912e-11
1.86752e-11
1.84477e-11
1.82526e-11
1.80322e-11
1.77869e-11
1.75425e-11
1.72907e-11
1.70084e-11
1.6717e-11
1.6408e-11
1.60475e-11
1.5683e-11
1.52898e-11
1.48543e-11
1.43705e-11
1.38506e-11
1.32749e-11
1.26433e-11
1.19288e-11
1.11219e-11
1.0279e-11
9.49183e-12
1.05406e-11
1.0715e-11
1.1182e-11
1.17464e-11
1.23315e-11
1.28936e-11
1.34425e-11
1.39233e-11
1.43516e-11
1.47593e-11
1.51366e-11
1.54612e-11
1.5769e-11
1.60504e-11
1.63177e-11
1.65516e-11
1.67662e-11
1.69792e-11
1.71809e-11
1.73671e-11
1.75551e-11
1.77081e-11
1.78797e-11
1.80307e-11
1.8174e-11
1.8319e-11
1.84481e-11
1.85825e-11
1.87189e-11
1.88477e-11
1.89645e-11
1.90735e-11
1.92109e-11
1.93297e-11
1.94268e-11
1.95221e-11
1.96406e-11
1.9744e-11
1.98502e-11
1.99589e-11
2.00575e-11
2.01692e-11
2.02702e-11
2.03769e-11
2.04782e-11
2.05832e-11
2.06768e-11
2.07552e-11
2.08321e-11
2.09248e-11
2.10098e-11
2.1089e-11
2.11797e-11
2.1272e-11
2.1319e-11
2.1385e-11
2.14623e-11
2.15205e-11
2.1565e-11
2.16377e-11
2.16954e-11
2.17489e-11
2.18156e-11
2.18948e-11
2.19639e-11
2.20211e-11
2.20685e-11
2.21219e-11
2.21752e-11
2.22384e-11
2.22922e-11
2.23457e-11
2.23926e-11
2.24386e-11
2.24817e-11
2.25306e-11
2.2571e-11
2.26224e-11
2.26508e-11
2.26839e-11
2.2723e-11
2.27464e-11
2.27667e-11
2.27998e-11
2.28299e-11
2.28582e-11
2.29042e-11
2.29329e-11
2.29501e-11
2.2967e-11
2.29819e-11
2.30064e-11
2.3037e-11
2.30763e-11
2.31105e-11
2.31396e-11
2.31778e-11
2.32194e-11
2.32461e-11
2.32973e-11
2.33431e-11
2.33797e-11
2.34187e-11
2.34667e-11
2.35224e-11
2.3556e-11
2.35836e-11
2.36164e-11
2.36344e-11
2.3644e-11
2.36672e-11
2.36956e-11
2.37207e-11
2.37538e-11
2.37745e-11
2.38071e-11
2.38236e-11
2.38321e-11
2.38346e-11
2.38583e-11
2.38806e-11
2.39183e-11
2.39563e-11
2.39768e-11
2.39991e-11
2.40177e-11
2.40376e-11
2.40522e-11
2.4069e-11
2.40857e-11
2.41075e-11
2.41179e-11
2.41333e-11
2.41372e-11
2.41521e-11
2.41578e-11
2.41708e-11
2.41917e-11
2.42205e-11
2.42351e-11
2.4247e-11
2.42505e-11
2.4252e-11
2.42797e-11
2.42959e-11
2.42992e-11
2.43056e-11
2.43382e-11
2.43661e-11
2.43827e-11
2.43977e-11
2.44024e-11
2.44172e-11
2.44113e-11
2.44112e-11
2.44168e-11
2.44169e-11
2.44247e-11
2.44447e-11
2.44498e-11
2.44543e-11
2.4474e-11
2.44763e-11
2.44572e-11
2.44628e-11
2.4451e-11
2.44272e-11
2.4412e-11
2.4398e-11
2.43722e-11
2.436e-11
2.43683e-11
2.43687e-11
2.43602e-11
2.43457e-11
2.43414e-11
2.43357e-11
2.4317e-11
2.43133e-11
2.42874e-11
2.42619e-11
2.42435e-11
2.42205e-11
2.42019e-11
2.41927e-11
2.41809e-11
2.41512e-11
2.41443e-11
2.41392e-11
2.41193e-11
2.4108e-11
2.4091e-11
2.40567e-11
2.40325e-11
2.40237e-11
2.40015e-11
2.39675e-11
2.39518e-11
2.39456e-11
2.39124e-11
2.38913e-11
2.38704e-11
2.38586e-11
2.38378e-11
2.38087e-11
2.38011e-11
2.37694e-11
2.37213e-11
2.37053e-11
2.36784e-11
2.36567e-11
2.36425e-11
2.36241e-11
2.35947e-11
2.35723e-11
2.35391e-11
2.35166e-11
2.34825e-11
2.34587e-11
2.34371e-11
2.34062e-11
2.33624e-11
2.3332e-11
2.32958e-11
2.32655e-11
2.32232e-11
2.31896e-11
2.31706e-11
2.31518e-11
2.31104e-11
2.30822e-11
2.30591e-11
2.30282e-11
2.29944e-11
2.29541e-11
2.2922e-11
2.28905e-11
2.2864e-11
2.28171e-11
2.27666e-11
2.27143e-11
2.26807e-11
2.26367e-11
2.25758e-11
2.2519e-11
2.24409e-11
2.2379e-11
2.23032e-11
2.22139e-11
2.21383e-11
2.20644e-11
2.19887e-11
2.19157e-11
2.18371e-11
2.17454e-11
2.16884e-11
2.16006e-11
2.14888e-11
2.1404e-11
2.13164e-11
2.11887e-11
2.10833e-11
2.09569e-11
2.08484e-11
2.07377e-11
2.06251e-11
2.0534e-11
2.04079e-11
2.02873e-11
2.01758e-11
2.00305e-11
1.99036e-11
1.9765e-11
1.96125e-11
1.94523e-11
1.92474e-11
1.90755e-11
1.89035e-11
1.87074e-11
1.84938e-11
1.82856e-11
1.80528e-11
1.78424e-11
1.76093e-11
1.7336e-11
1.70678e-11
1.67809e-11
1.64861e-11
1.61359e-11
1.57692e-11
1.53954e-11
1.49906e-11
1.45439e-11
1.40623e-11
1.35589e-11
1.2991e-11
1.24143e-11
1.18067e-11
1.12219e-11
1.0774e-11
1.16066e-11
1.17181e-11
1.20168e-11
1.2391e-11
1.28513e-11
1.32967e-11
1.37621e-11
1.41758e-11
1.45617e-11
1.49346e-11
1.52758e-11
1.55927e-11
1.58874e-11
1.6151e-11
1.63981e-11
1.66162e-11
1.6828e-11
1.70446e-11
1.72453e-11
1.74033e-11
1.75872e-11
1.7755e-11
1.78994e-11
1.80538e-11
1.82164e-11
1.83556e-11
1.84653e-11
1.86024e-11
1.87402e-11
1.88603e-11
1.89783e-11
1.90908e-11
1.92249e-11
1.93492e-11
1.94471e-11
1.95344e-11
1.96501e-11
1.9746e-11
1.98544e-11
1.99612e-11
2.00694e-11
2.01661e-11
2.0285e-11
2.03919e-11
2.04935e-11
2.05922e-11
2.06949e-11
2.07557e-11
2.08399e-11
2.0924e-11
2.10156e-11
2.10947e-11
2.11912e-11
2.12671e-11
2.13222e-11
2.1397e-11
2.1466e-11
2.15309e-11
2.15828e-11
2.16402e-11
2.17109e-11
2.17555e-11
2.1824e-11
2.1904e-11
2.19519e-11
2.20117e-11
2.2071e-11
2.21262e-11
2.2188e-11
2.2254e-11
2.23043e-11
2.23451e-11
2.23942e-11
2.24449e-11
2.24809e-11
2.25477e-11
2.25773e-11
2.26161e-11
2.26434e-11
2.2693e-11
2.27227e-11
2.27434e-11
2.27748e-11
2.27982e-11
2.2834e-11
2.28752e-11
2.29179e-11
2.29539e-11
2.29619e-11
2.29683e-11
2.29742e-11
2.30156e-11
2.30337e-11
2.30719e-11
2.31039e-11
2.3142e-11
2.31798e-11
2.32186e-11
2.32478e-11
2.32876e-11
2.33424e-11
2.33934e-11
2.34316e-11
2.34639e-11
2.35283e-11
2.35821e-11
2.36086e-11
2.36201e-11
2.36247e-11
2.36367e-11
2.36607e-11
2.36782e-11
2.37292e-11
2.37663e-11
2.37803e-11
2.38058e-11
2.38068e-11
2.3843e-11
2.38477e-11
2.38479e-11
2.38819e-11
2.39171e-11
2.39597e-11
2.39876e-11
2.4013e-11
2.40339e-11
2.40531e-11
2.40558e-11
2.40664e-11
2.40886e-11
2.41121e-11
2.4129e-11
2.41327e-11
2.41282e-11
2.41473e-11
2.41393e-11
2.41586e-11
2.41819e-11
2.42193e-11
2.42261e-11
2.42388e-11
2.4238e-11
2.42444e-11
2.42799e-11
2.42829e-11
2.43058e-11
2.43163e-11
2.43332e-11
2.43754e-11
2.43954e-11
2.4417e-11
2.4412e-11
2.441e-11
2.44155e-11
2.44152e-11
2.44174e-11
2.44139e-11
2.44314e-11
2.44336e-11
2.44266e-11
2.44543e-11
2.4456e-11
2.4462e-11
2.44737e-11
2.44672e-11
2.44606e-11
2.44377e-11
2.44274e-11
2.43859e-11
2.43818e-11
2.437e-11
2.4384e-11
2.4365e-11
2.43496e-11
2.43478e-11
2.43675e-11
2.4348e-11
2.43012e-11
2.43041e-11
2.42883e-11
2.42603e-11
2.42393e-11
2.42207e-11
2.41956e-11
2.41785e-11
2.41798e-11
2.41485e-11
2.41565e-11
2.41515e-11
2.41332e-11
2.41197e-11
2.40874e-11
2.40718e-11
2.40488e-11
2.40203e-11
2.40065e-11
2.39535e-11
2.39481e-11
2.3957e-11
2.39152e-11
2.38877e-11
2.38565e-11
2.38596e-11
2.38448e-11
2.38076e-11
2.37911e-11
2.37778e-11
2.37322e-11
2.37229e-11
2.36881e-11
2.36539e-11
2.3641e-11
2.36344e-11
2.36139e-11
2.35821e-11
2.35596e-11
2.34993e-11
2.34814e-11
2.34687e-11
2.34477e-11
2.34139e-11
2.33697e-11
2.33147e-11
2.32808e-11
2.32695e-11
2.32263e-11
2.3187e-11
2.31563e-11
2.31367e-11
2.31052e-11
2.3092e-11
2.30681e-11
2.30546e-11
2.30104e-11
2.29499e-11
2.29375e-11
2.29134e-11
2.28609e-11
2.28325e-11
2.27701e-11
2.27437e-11
2.27061e-11
2.26446e-11
2.2598e-11
2.25178e-11
2.24409e-11
2.2401e-11
2.23211e-11
2.22354e-11
2.21468e-11
2.20633e-11
2.19977e-11
2.19165e-11
2.18477e-11
2.17561e-11
2.16884e-11
2.16291e-11
2.15216e-11
2.14239e-11
2.13007e-11
2.11952e-11
2.11093e-11
2.09705e-11
2.08685e-11
2.07419e-11
2.06315e-11
2.05494e-11
2.04267e-11
2.02983e-11
2.0201e-11
2.00535e-11
1.9934e-11
1.98123e-11
1.96555e-11
1.94806e-11
1.92954e-11
1.91143e-11
1.89127e-11
1.87455e-11
1.85366e-11
1.83198e-11
1.811e-11
1.79013e-11
1.76643e-11
1.73957e-11
1.71576e-11
1.68823e-11
1.65646e-11
1.62513e-11
1.58974e-11
1.55245e-11
1.51674e-11
1.47627e-11
1.43197e-11
1.38873e-11
1.33669e-11
1.29119e-11
1.24882e-11
1.2038e-11
1.17595e-11
1.2449e-11
1.25204e-11
1.27144e-11
1.3016e-11
1.33776e-11
1.37215e-11
1.40775e-11
1.4448e-11
1.47979e-11
1.51489e-11
1.54313e-11
1.57302e-11
1.60191e-11
1.62778e-11
1.64856e-11
1.67104e-11
1.69176e-11
1.71095e-11
1.72832e-11
1.74587e-11
1.7647e-11
1.78007e-11
1.79398e-11
1.80826e-11
1.82475e-11
1.8374e-11
1.85082e-11
1.86359e-11
1.87572e-11
1.88816e-11
1.90043e-11
1.91335e-11
1.92612e-11
1.93597e-11
1.94522e-11
1.95549e-11
1.9658e-11
1.97491e-11
1.98532e-11
1.995e-11
2.00652e-11
2.01687e-11
2.03076e-11
2.04026e-11
2.05139e-11
2.06046e-11
2.06755e-11
2.07653e-11
2.08256e-11
2.09327e-11
2.10225e-11
2.10986e-11
2.11921e-11
2.12626e-11
2.13447e-11
2.13923e-11
2.14533e-11
2.15313e-11
2.16149e-11
2.1659e-11
2.17177e-11
2.17582e-11
2.18285e-11
2.19014e-11
2.19595e-11
2.20177e-11
2.20861e-11
2.21384e-11
2.21981e-11
2.22634e-11
2.22972e-11
2.23547e-11
2.24169e-11
2.24564e-11
2.24677e-11
2.25357e-11
2.25848e-11
2.26139e-11
2.26547e-11
2.26967e-11
2.27118e-11
2.27473e-11
2.27951e-11
2.28061e-11
2.28398e-11
2.28812e-11
2.29015e-11
2.29565e-11
2.29931e-11
2.2982e-11
2.29677e-11
2.3011e-11
2.30272e-11
2.30652e-11
2.31074e-11
2.31344e-11
2.31771e-11
2.32254e-11
2.3245e-11
2.33005e-11
2.33452e-11
2.33929e-11
2.34212e-11
2.34804e-11
2.35296e-11
2.35764e-11
2.36018e-11
2.36245e-11
2.36311e-11
2.36197e-11
2.36402e-11
2.36954e-11
2.37457e-11
2.3766e-11
2.37755e-11
2.37955e-11
2.38295e-11
2.38467e-11
2.38503e-11
2.38618e-11
2.3881e-11
2.39016e-11
2.39482e-11
2.39967e-11
2.40525e-11
2.40738e-11
2.40595e-11
2.40518e-11
2.40565e-11
2.40979e-11
2.41126e-11
2.41375e-11
2.41607e-11
2.41405e-11
2.41043e-11
2.4131e-11
2.4149e-11
2.41806e-11
2.42109e-11
2.41924e-11
2.41948e-11
2.42403e-11
2.42536e-11
2.42815e-11
2.42828e-11
2.43255e-11
2.43233e-11
2.43168e-11
2.4338e-11
2.4381e-11
2.44237e-11
2.44274e-11
2.44084e-11
2.44118e-11
2.44149e-11
2.44266e-11
2.44291e-11
2.44381e-11
2.44505e-11
2.44451e-11
2.44388e-11
2.44427e-11
2.44488e-11
2.44452e-11
2.44667e-11
2.44588e-11
2.44593e-11
2.44321e-11
2.44094e-11
2.43918e-11
2.43595e-11
2.43792e-11
2.43597e-11
2.43404e-11
2.43638e-11
2.4363e-11
2.43375e-11
2.42874e-11
2.42822e-11
2.4287e-11
2.4266e-11
2.42424e-11
2.42276e-11
2.4204e-11
2.41888e-11
2.41683e-11
2.41527e-11
2.41503e-11
2.4146e-11
2.41434e-11
2.41347e-11
2.41262e-11
2.40728e-11
2.40486e-11
2.40235e-11
2.39927e-11
2.3959e-11
2.39498e-11
2.39659e-11
2.39338e-11
2.38879e-11
2.38428e-11
2.38635e-11
2.386e-11
2.38131e-11
2.38114e-11
2.37841e-11
2.37516e-11
2.37526e-11
2.37014e-11
2.36719e-11
2.3652e-11
2.36577e-11
2.36101e-11
2.35957e-11
2.35774e-11
2.35178e-11
2.35121e-11
2.34798e-11
2.34513e-11
2.3406e-11
2.33661e-11
2.33191e-11
2.32687e-11
2.32463e-11
2.32162e-11
2.31956e-11
2.31544e-11
2.31443e-11
2.31089e-11
2.30871e-11
2.30746e-11
2.30599e-11
2.30131e-11
2.2963e-11
2.29531e-11
2.2924e-11
2.28747e-11
2.28293e-11
2.27833e-11
2.27376e-11
2.27048e-11
2.26596e-11
2.26014e-11
2.25258e-11
2.24648e-11
2.23973e-11
2.2342e-11
2.22525e-11
2.21742e-11
2.20785e-11
2.20041e-11
2.1917e-11
2.18503e-11
2.17578e-11
2.17056e-11
2.16587e-11
2.15357e-11
2.14311e-11
2.13032e-11
2.12187e-11
2.11365e-11
2.09802e-11
2.0875e-11
2.07715e-11
2.06459e-11
2.05736e-11
2.04567e-11
2.03234e-11
2.02372e-11
2.01096e-11
1.99618e-11
1.98423e-11
1.9675e-11
1.95148e-11
1.93395e-11
1.91528e-11
1.89515e-11
1.87729e-11
1.85734e-11
1.83622e-11
1.81825e-11
1.79874e-11
1.77396e-11
1.74711e-11
1.72597e-11
1.69942e-11
1.66882e-11
1.63786e-11
1.60506e-11
1.57075e-11
1.53643e-11
1.49972e-11
1.46076e-11
1.42358e-11
1.38091e-11
1.34171e-11
1.30744e-11
1.27784e-11
1.25173e-11
1.312e-11
1.31889e-11
1.33712e-11
1.35867e-11
1.38566e-11
1.41642e-11
1.44321e-11
1.47175e-11
1.5058e-11
1.53736e-11
1.56215e-11
1.58758e-11
1.61598e-11
1.64089e-11
1.65978e-11
1.68009e-11
1.70053e-11
1.71648e-11
1.73561e-11
1.7522e-11
1.77066e-11
1.78633e-11
1.80228e-11
1.81417e-11
1.83007e-11
1.84223e-11
1.85338e-11
1.86607e-11
1.88116e-11
1.89267e-11
1.90444e-11
1.91534e-11
1.92749e-11
1.93719e-11
1.94903e-11
1.96037e-11
1.96568e-11
1.97433e-11
1.98355e-11
1.99799e-11
2.00777e-11
2.01883e-11
2.03084e-11
2.04103e-11
2.05209e-11
2.05924e-11
2.06745e-11
2.0768e-11
2.08336e-11
2.09411e-11
2.10316e-11
2.11032e-11
2.11903e-11
2.12692e-11
2.13479e-11
2.1409e-11
2.1461e-11
2.15403e-11
2.1617e-11
2.16623e-11
2.17204e-11
2.17671e-11
2.18329e-11
2.18938e-11
2.19563e-11
2.20228e-11
2.20913e-11
2.21656e-11
2.22276e-11
2.22876e-11
2.23039e-11
2.23317e-11
2.24001e-11
2.24646e-11
2.24884e-11
2.25173e-11
2.25992e-11
2.26361e-11
2.26661e-11
2.26886e-11
2.27282e-11
2.27532e-11
2.28021e-11
2.2812e-11
2.28502e-11
2.28875e-11
2.2904e-11
2.29518e-11
2.29931e-11
2.29786e-11
2.2984e-11
2.30216e-11
2.30329e-11
2.3066e-11
2.31027e-11
2.31403e-11
2.31948e-11
2.32459e-11
2.32519e-11
2.33143e-11
2.33422e-11
2.33861e-11
2.34239e-11
2.34977e-11
2.35421e-11
2.35785e-11
2.35905e-11
2.36171e-11
2.36142e-11
2.36153e-11
2.36466e-11
2.37005e-11
2.3748e-11
2.37715e-11
2.37651e-11
2.38016e-11
2.38268e-11
2.38605e-11
2.38611e-11
2.38726e-11
2.38831e-11
2.39024e-11
2.39712e-11
2.39969e-11
2.40231e-11
2.40714e-11
2.40685e-11
2.40731e-11
2.40526e-11
2.41009e-11
2.41283e-11
2.41352e-11
2.41375e-11
2.41537e-11
2.40892e-11
2.41089e-11
2.41141e-11
2.41473e-11
2.4197e-11
2.41904e-11
2.41909e-11
2.42266e-11
2.42471e-11
2.42897e-11
2.42977e-11
2.43045e-11
2.43083e-11
2.43191e-11
2.43232e-11
2.43618e-11
2.44089e-11
2.44486e-11
2.441e-11
2.44338e-11
2.44281e-11
2.44118e-11
2.44399e-11
2.44554e-11
2.44419e-11
2.44337e-11
2.44228e-11
2.44296e-11
2.44546e-11
2.44687e-11
2.4468e-11
2.44723e-11
2.44489e-11
2.4445e-11
2.44232e-11
2.43943e-11
2.43878e-11
2.44008e-11
2.43651e-11
2.43375e-11
2.43572e-11
2.43768e-11
2.43289e-11
2.4292e-11
2.42576e-11
2.42802e-11
2.42739e-11
2.42284e-11
2.42287e-11
2.42059e-11
2.4196e-11
2.41719e-11
2.41836e-11
2.41621e-11
2.41477e-11
2.41587e-11
2.41378e-11
2.4136e-11
2.40873e-11
2.40579e-11
2.40052e-11
2.39818e-11
2.39488e-11
2.39595e-11
2.3957e-11
2.39234e-11
2.38854e-11
2.38606e-11
2.3875e-11
2.38498e-11
2.38235e-11
2.38133e-11
2.37972e-11
2.37738e-11
2.37465e-11
2.37135e-11
2.37059e-11
2.36933e-11
2.36724e-11
2.36169e-11
2.36093e-11
2.36033e-11
2.35755e-11
2.35285e-11
2.3475e-11
2.34303e-11
2.3399e-11
2.33699e-11
2.33325e-11
2.32771e-11
2.32325e-11
2.32113e-11
2.31886e-11
2.31494e-11
2.31598e-11
2.31065e-11
2.30847e-11
2.30722e-11
2.30522e-11
2.30179e-11
2.29594e-11
2.29538e-11
2.29239e-11
2.28899e-11
2.28465e-11
2.27531e-11
2.27237e-11
2.26995e-11
2.26505e-11
2.25903e-11
2.256e-11
2.24798e-11
2.24226e-11
2.23535e-11
2.22463e-11
2.21801e-11
2.21058e-11
2.20242e-11
2.19477e-11
2.18918e-11
2.17858e-11
2.16846e-11
2.16414e-11
2.15371e-11
2.14269e-11
2.13402e-11
2.12179e-11
2.11374e-11
2.10022e-11
2.08749e-11
2.07969e-11
2.06876e-11
2.06142e-11
2.05026e-11
2.03655e-11
2.02501e-11
2.0147e-11
2.00157e-11
1.98618e-11
1.97237e-11
1.95451e-11
1.93962e-11
1.91984e-11
1.90016e-11
1.87959e-11
1.86182e-11
1.84363e-11
1.82374e-11
1.80621e-11
1.78436e-11
1.76002e-11
1.73517e-11
1.71127e-11
1.68183e-11
1.65029e-11
1.62126e-11
1.59344e-11
1.55975e-11
1.5233e-11
1.4918e-11
1.45933e-11
1.42515e-11
1.39038e-11
1.36221e-11
1.3402e-11
1.31938e-11
1.37235e-11
1.37812e-11
1.39132e-11
1.40998e-11
1.42828e-11
1.45555e-11
1.48251e-11
1.5031e-11
1.52896e-11
1.5595e-11
1.58393e-11
1.60639e-11
1.63131e-11
1.65385e-11
1.67085e-11
1.69138e-11
1.70952e-11
1.72831e-11
1.74388e-11
1.7627e-11
1.7784e-11
1.78991e-11
1.80762e-11
1.8232e-11
1.83803e-11
1.84669e-11
1.85812e-11
1.87007e-11
1.88431e-11
1.89694e-11
1.90622e-11
1.91619e-11
1.93043e-11
1.94305e-11
1.95349e-11
1.9639e-11
1.96741e-11
1.97476e-11
1.98463e-11
1.99648e-11
2.00874e-11
2.02123e-11
2.03218e-11
2.04243e-11
2.05273e-11
2.0587e-11
2.06831e-11
2.07557e-11
2.08335e-11
2.09342e-11
2.10159e-11
2.11015e-11
2.11939e-11
2.12715e-11
2.13465e-11
2.14043e-11
2.14687e-11
2.15756e-11
2.16265e-11
2.1674e-11
2.17e-11
2.17748e-11
2.18398e-11
2.19056e-11
2.19609e-11
2.20424e-11
2.21187e-11
2.2159e-11
2.22269e-11
2.22914e-11
2.23299e-11
2.23411e-11
2.24032e-11
2.24527e-11
2.24959e-11
2.25431e-11
2.26179e-11
2.26416e-11
2.27026e-11
2.27094e-11
2.27445e-11
2.2757e-11
2.27996e-11
2.28394e-11
2.28569e-11
2.28903e-11
2.29097e-11
2.29498e-11
2.29934e-11
2.29848e-11
2.30076e-11
2.30245e-11
2.30642e-11
2.30825e-11
2.31325e-11
2.31473e-11
2.31829e-11
2.32372e-11
2.32738e-11
2.33084e-11
2.33631e-11
2.3418e-11
2.34554e-11
2.34826e-11
2.35434e-11
2.35886e-11
2.3597e-11
2.35837e-11
2.35938e-11
2.36086e-11
2.36529e-11
2.37022e-11
2.37355e-11
2.37617e-11
2.37828e-11
2.3807e-11
2.38484e-11
2.38612e-11
2.38646e-11
2.38857e-11
2.38972e-11
2.39048e-11
2.39715e-11
2.39997e-11
2.40108e-11
2.40606e-11
2.40936e-11
2.40919e-11
2.40835e-11
2.41187e-11
2.41504e-11
2.4123e-11
2.41172e-11
2.41051e-11
2.40911e-11
2.40801e-11
2.41084e-11
2.41126e-11
2.41546e-11
2.41779e-11
2.42117e-11
2.422e-11
2.42377e-11
2.426e-11
2.42774e-11
2.42865e-11
2.43183e-11
2.43279e-11
2.43366e-11
2.43541e-11
2.43836e-11
2.44034e-11
2.44211e-11
2.44302e-11
2.44284e-11
2.44342e-11
2.44403e-11
2.44348e-11
2.44426e-11
2.44256e-11
2.44263e-11
2.44458e-11
2.44555e-11
2.44688e-11
2.44673e-11
2.44574e-11
2.44613e-11
2.44825e-11
2.44443e-11
2.4417e-11
2.44162e-11
2.43889e-11
2.43596e-11
2.43654e-11
2.43675e-11
2.43714e-11
2.43341e-11
2.4298e-11
2.42833e-11
2.4256e-11
2.42465e-11
2.42098e-11
2.42253e-11
2.42083e-11
2.41966e-11
2.41995e-11
2.41953e-11
2.41678e-11
2.41774e-11
2.41593e-11
2.41456e-11
2.41277e-11
2.40945e-11
2.40652e-11
2.40012e-11
2.39466e-11
2.39462e-11
2.39625e-11
2.3954e-11
2.39198e-11
2.38869e-11
2.38491e-11
2.38923e-11
2.38788e-11
2.38481e-11
2.38279e-11
2.38037e-11
2.37896e-11
2.37378e-11
2.37219e-11
2.37115e-11
2.37269e-11
2.36751e-11
2.36344e-11
2.36197e-11
2.35989e-11
2.35679e-11
2.35236e-11
2.34566e-11
2.34245e-11
2.341e-11
2.34075e-11
2.3339e-11
2.32706e-11
2.32447e-11
2.32144e-11
2.31793e-11
2.31568e-11
2.31321e-11
2.31089e-11
2.30912e-11
2.30773e-11
2.30443e-11
2.30055e-11
2.29698e-11
2.29474e-11
2.29121e-11
2.28731e-11
2.28376e-11
2.2766e-11
2.27271e-11
2.26953e-11
2.26553e-11
2.25855e-11
2.25641e-11
2.25015e-11
2.24078e-11
2.23569e-11
2.22741e-11
2.21857e-11
2.21105e-11
2.20413e-11
2.19713e-11
2.19056e-11
2.18294e-11
2.17058e-11
2.16207e-11
2.15487e-11
2.14308e-11
2.13378e-11
2.12543e-11
2.11684e-11
2.10199e-11
2.09063e-11
2.0828e-11
2.07227e-11
2.06328e-11
2.05403e-11
2.03958e-11
2.02775e-11
2.01851e-11
2.00811e-11
1.99245e-11
1.97954e-11
1.95901e-11
1.94445e-11
1.92584e-11
1.90573e-11
1.88321e-11
1.86854e-11
1.85281e-11
1.83366e-11
1.81513e-11
1.79353e-11
1.77139e-11
1.748e-11
1.72194e-11
1.6956e-11
1.66649e-11
1.63738e-11
1.61433e-11
1.58448e-11
1.55098e-11
1.5213e-11
1.4952e-11
1.46423e-11
1.43779e-11
1.41359e-11
1.39525e-11
1.38113e-11
1.4257e-11
1.42826e-11
1.43953e-11
1.4559e-11
1.47196e-11
1.49282e-11
1.51555e-11
1.5346e-11
1.55795e-11
1.58355e-11
1.60633e-11
1.6285e-11
1.64704e-11
1.66749e-11
1.68628e-11
1.70318e-11
1.71848e-11
1.73662e-11
1.75523e-11
1.77047e-11
1.78605e-11
1.79894e-11
1.81214e-11
1.82944e-11
1.84301e-11
1.84948e-11
1.86223e-11
1.87619e-11
1.88871e-11
1.90039e-11
1.90786e-11
1.92001e-11
1.93309e-11
1.94706e-11
1.95568e-11
1.96566e-11
1.97071e-11
1.9774e-11
1.99105e-11
2.00133e-11
2.01072e-11
2.02234e-11
2.03198e-11
2.04332e-11
2.05651e-11
2.06013e-11
2.06877e-11
2.07583e-11