/*--------------------------------*- C++ -*----------------------------------*\
| =========                 |                                                 |
| \\      /  F ield         | OpenFOAM: The Open Source CFD Toolbox           |
|  \\    /   O peration     | Version:  2406                                  |
|   \\  /    A nd           | Website:  www.openfoam.com                      |
|    \\/     M anipulation  |                                                 |
\*---------------------------------------------------------------------------*/
FoamFile
{
    version     2.0;
    format      ascii;
    arch        "LSB;label=32;scalar=64";
    class       surfaceScalarField;
    location    "12.99375";
    object      phi;
}
// * * * * * * * * * * * * * * * * * * * * * * * * * * * * * * * * * * * * * //

dimensions      [0 3 -1 0 0 0 0];

oriented        oriented;

internalField   nonuniform List<scalar> 
59600
(
0.000249663
-1.62259e-17
0.000249663
-6.74748e-18
0.000249663
-3.28254e-18
0.000249663
-1.61386e-18
0.000249663
-9.52771e-19
0.000249663
-5.6238e-19
0.000249663
-4.10115e-19
0.000249663
-2.80587e-19
0.000249663
-1.88349e-19
0.000249663
-1.37466e-19
0.000249663
-1.38615e-19
0.000249663
-1.21033e-19
0.000249663
-1.68414e-19
0.000249663
-1.01099e-19
0.000249663
-1.1843e-19
0.000249663
-2.0002e-19
0.000249663
-1.28697e-19
0.000249663
-8.96139e-20
0.000249663
-1.04751e-19
0.000249663
-3.21301e-21
0.000249663
-1.74823e-20
0.000249663
-1.20801e-19
0.000249663
3.72764e-20
0.000249663
-6.23869e-20
0.000249663
-2.19218e-20
0.000249663
-5.82588e-20
0.000249663
1.30694e-20
0.000249663
2.70083e-20
0.000249663
-2.2913e-19
0.000249663
-1.20107e-19
0.000249663
5.15808e-20
0.000249663
-7.34856e-20
0.000249663
1.46201e-20
0.000249663
1.65743e-19
0.000249663
-9.16326e-20
0.000249663
3.54475e-21
0.000249663
-3.30511e-20
0.000249663
4.45547e-20
0.000249663
1.1728e-19
0.000249663
-3.31582e-20
0.000249663
2.13351e-19
0.000249663
-4.73553e-20
0.000249663
3.8502e-20
0.000249663
1.60544e-19
0.000249663
-1.67351e-19
0.000249663
7.13797e-21
0.000249663
1.21871e-19
0.000249663
-1.69069e-19
0.000249663
-4.45185e-20
0.000249663
1.32141e-19
0.000249663
3.28182e-20
0.000249663
-1.04114e-19
0.000249663
-3.76081e-19
0.000249663
-2.4746e-19
0.000249663
5.827e-20
0.000249663
-1.02919e-19
0.000249663
1.21269e-19
0.000249663
-1.33683e-19
0.000249663
-2.06559e-19
0.000249663
1.2729e-19
0.000249663
9.83082e-20
0.000249663
-2.1501e-20
0.000249663
7.50411e-20
0.000249663
2.67869e-19
0.000249663
-5.50463e-20
0.000249663
2.04831e-19
0.000249663
4.19743e-20
0.000249663
-5.55986e-20
0.000249663
2.15129e-19
0.000249663
-1.88882e-19
0.000249663
-2.5582e-19
0.000249663
3.33395e-20
0.000249663
3.26161e-19
0.000249663
-2.36065e-19
0.000249663
-3.86915e-19
0.000249663
4.49403e-19
0.000249663
8.78047e-20
0.000249663
-3.18253e-19
0.000249663
-7.36274e-21
0.000249663
3.55244e-19
0.000249663
1.55567e-19
0.000249663
2.54912e-19
0.000249663
4.97943e-19
0.000249663
1.11833e-19
0.000249663
-2.88122e-19
0.000249663
5.22342e-19
0.000249663
3.24438e-19
0.000249663
-1.4116e-19
0.000249663
4.00795e-20
0.000249663
-3.09282e-20
0.000249663
4.24298e-20
0.000249663
2.95679e-19
0.000249663
2.12447e-19
0.000249663
4.73854e-20
0.000249663
-4.12928e-21
0.000249663
-5.38403e-19
0.000249663
5.96647e-20
0.000249663
3.91172e-19
0.000249663
-3.4924e-19
0.000249663
-3.64626e-19
0.000249663
3.91808e-20
0.000249663
1.43114e-19
0.000249663
-1.82479e-19
0.000249663
-7.1405e-20
0.000249663
6.24219e-20
0.000249663
-3.7986e-19
0.000249663
-2.61159e-19
0.000249663
4.90116e-20
0.000249663
1.07417e-19
0.000249663
4.46818e-19
0.000249663
-1.48856e-19
0.000249663
-4.8137e-19
0.000249663
4.48462e-20
0.000249663
4.55212e-19
0.000249663
1.99286e-19
0.000249663
-4.59865e-19
0.000249663
-4.46517e-19
0.000249663
2.52812e-19
0.000249663
3.70819e-19
0.000249663
-7.47923e-20
0.000249663
-1.89327e-19
0.000249663
7.30045e-20
0.000249663
4.1503e-19
0.000249663
1.58196e-20
0.000249663
-4.72098e-19
0.000249663
2.29404e-19
0.000249663
5.11646e-20
0.000249663
-4.06589e-19
0.000249663
-4.4045e-20
0.000249663
-9.48017e-20
0.000249663
-3.71961e-19
0.000249663
-4.56818e-20
0.000249663
6.46941e-19
0.000249663
-3.29902e-19
0.000249663
-3.7781e-19
0.000249663
3.28322e-19
0.000249663
2.6436e-19
0.000249663
-3.23028e-19
0.000249663
3.24862e-19
0.000249663
3.8337e-19
0.000249663
-5.10714e-19
0.000249663
-2.89052e-19
0.000249663
1.78962e-19
0.000249663
4.75152e-19
0.000249663
-2.29655e-19
0.000249663
-2.11782e-19
0.000249663
6.88512e-19
0.000249663
-7.45212e-20
0.000249663
-5.32152e-19
0.000249663
4.0074e-19
0.000249663
-4.09731e-19
0.000249663
-1.66689e-19
0.000249663
9.8045e-19
0.000249663
-3.44631e-19
0.000249663
-2.37797e-19
0.000249663
2.51426e-19
0.000249663
-5.96654e-19
0.000249663
-5.51548e-20
0.000249663
9.91223e-20
0.000249663
3.32596e-19
0.000249663
-2.45769e-20
0.000249663
-3.14844e-19
0.000249663
-1.326e-19
0.000249663
7.55568e-20
0.000249663
-6.31429e-20
0.000249663
-4.93305e-20
0.000249663
2.706e-19
0.000249663
-7.93508e-19
0.000249663
5.82305e-19
0.000249663
7.64626e-19
0.000249663
-6.72236e-19
0.000249663
4.80986e-19
0.000249663
6.53384e-19
0.000249663
-7.753e-19
0.000249663
-1.82037e-19
0.000249663
1.12719e-19
0.000249663
2.77692e-19
0.000249663
3.58234e-20
0.000249663
-3.40704e-19
0.000249663
4.05309e-19
0.000249663
-1.92571e-19
0.000249663
-3.05918e-19
0.000249663
-1.61607e-19
0.000249663
-2.64138e-19
0.000249663
8.99528e-19
0.000249663
2.70636e-19
0.000249663
-4.42555e-19
0.000249663
3.48496e-19
0.000249663
3.12629e-20
0.000249663
-1.17674e-19
0.000249663
-3.66101e-19
0.000249663
-3.58625e-19
0.000249663
-3.52428e-19
0.000249663
6.99722e-19
0.000249663
7.13456e-19
0.000249663
-6.52994e-21
0.000249663
4.34962e-19
0.000249663
2.74039e-19
0.000249663
-9.12578e-19
0.000249663
-4.57205e-19
0.000249663
4.45165e-19
0.000249663
-4.48731e-19
0.000249663
5.28847e-19
0.000249663
3.69981e-19
0.000249663
1.44959e-19
0.000249663
1.23552e-19
0.000249663
-6.19869e-19
0.000249663
-3.32845e-19
0.000249663
1.20122e-19
0.000249663
-1.3386e-19
0.000249663
4.04647e-19
0.000249663
-2.80496e-20
0.000249663
-5.98864e-19
0.000249663
6.2788e-19
0.000249663
-3.12197e-19
0.000249663
-3.39305e-19
0.000249663
-9.5358e-20
0.000249663
-1.5077e-20
0.000249663
4.75977e-19
0.000249663
7.1671e-19
0.000249663
-1.88223e-19
0.000249663
-7.15532e-19
0.000249663
-3.2539e-19
0.000249663
-5.29756e-19
0.000249663
1.74467e-19
0.000249663
1.26753e-19
0.000249663
3.03134e-19
0.000249663
7.59131e-19
0.000249663
5.29157e-19
0.000249663
1.38234e-19
0.000249663
-3.62631e-19
0.000249663
-8.73396e-19
0.000249663
2.39356e-19
0.000249663
1.42796e-19
0.000249663
-4.97301e-19
0.000249663
6.18139e-19
0.000249663
3.09674e-19
0.000249663
4.47273e-19
0.000249663
-5.17434e-19
0.000249663
1.62514e-19
0.000249663
-1.647e-19
0.000249663
-7.91964e-19
0.000249663
4.65912e-19
0.000249663
8.79263e-19
0.000249663
-3.87439e-19
0.000249663
-2.89527e-19
0.000249663
5.28226e-19
0.000249663
-3.87542e-19
0.000249663
-4.0775e-21
0.000249663
-3.01147e-19
0.000249663
-4.20254e-20
0.000249663
3.64559e-19
0.000249663
1.07523e-18
0.000249663
-3.47888e-19
0.000249663
-5.86021e-19
0.000249663
5.29169e-19
0.000249663
-5.31864e-19
0.000249663
-8.01336e-19
0.000249663
3.72624e-19
0.000249663
-2.0552e-20
0.000249663
3.53827e-19
0.000249663
1.01392e-18
0.000249663
-9.34058e-19
0.000249663
3.25849e-19
0.000249663
-4.06715e-19
0.000249663
-2.77975e-19
0.000249663
1.04256e-18
0.000249663
-1.21487e-18
0.000249663
-2.54057e-19
0.000249663
2.3082e-18
0.000249663
-9.46629e-19
0.000249663
-1.16215e-18
0.000249663
2.14982e-19
0.000249663
-7.25395e-19
0.000249663
9.85965e-19
0.000249663
-1.15939e-18
0.000249663
-2.32806e-19
0.000249663
1.3216e-18
0.000249663
5.29809e-19
0.000249663
-7.49738e-19
0.000249663
-6.1516e-19
0.000249663
-1.90657e-19
0.000249663
8.28766e-20
0.000249663
1.97475e-19
0.000249663
-7.98905e-19
0.000249663
1.1394e-18
0.000249663
-3.59285e-19
0.000249663
-1.07101e-18
0.000249663
7.20808e-19
0.000249663
3.67518e-19
0.000249663
-1.09132e-18
0.000249663
-1.02251e-19
0.000249663
-1.45941e-19
0.000249663
-6.09967e-19
0.000249663
1.67063e-18
0.000249663
4.33661e-19
0.000249663
-2.58712e-18
0.000249663
-1.19352e-18
0.000249663
-2.93071e-18
-7.40834e-18
0.00073899
-8.84662e-18
0.00073899
-6.78946e-18
0.00073899
-4.62317e-18
0.00073899
-3.08443e-18
0.00073899
-1.80738e-18
0.00073899
-9.78775e-19
0.00073899
-7.88587e-19
0.00073899
-5.02467e-19
0.00073899
-5.5597e-19
0.00073899
-5.49986e-19
0.00073899
-4.53969e-19
0.00073899
-4.08383e-19
0.00073899
-3.86493e-19
0.00073899
-5.12353e-19
0.00073899
-6.91365e-19
0.00073899
-4.09239e-19
0.00073899
-6.60409e-19
0.00073899
-4.34333e-19
0.00073899
-9.18598e-20
0.00073899
-1.19236e-20
0.00073899
-2.16625e-19
0.00073899
-8.58304e-20
0.00073899
-9.49584e-21
0.00073899
-1.54163e-19
0.00073899
-1.18579e-19
0.00073899
-2.60974e-20
0.00073899
-1.69917e-19
0.00073899
-1.53825e-19
0.00073899
-5.75189e-19
0.00073899
-3.60868e-19
0.00073899
4.59198e-20
0.00073899
4.2017e-20
0.00073899
1.61259e-19
0.00073899
-3.39901e-20
0.00073899
-1.8555e-19
0.00073899
8.45111e-20
0.00073899
3.61129e-20
0.00073899
1.72245e-19
0.00073899
2.8317e-19
0.00073899
1.60451e-19
0.00073899
4.91266e-19
0.00073899
7.42351e-21
0.00073899
-2.30771e-20
0.00073899
1.60911e-19
0.00073899
-2.05256e-19
0.00073899
-1.28116e-19
0.00073899
7.17449e-20
0.00073899
-3.7638e-19
0.00073899
4.99869e-20
0.00073899
4.86735e-19
0.00073899
-3.15516e-19
0.00073899
-6.82143e-19
0.00073899
-8.90616e-19
0.00073899
-4.28871e-19
0.00073899
-4.01824e-20
0.00073899
-2.39105e-19
0.00073899
2.09118e-19
0.00073899
-1.82266e-19
0.00073899
-2.49723e-19
0.00073899
1.07786e-19
0.00073899
2.43563e-19
0.00073899
-7.30224e-21
0.00073899
2.97567e-20
0.00073899
6.21367e-19
0.00073899
4.86148e-19
0.00073899
4.78866e-19
0.00073899
-9.90851e-20
0.00073899
-3.40854e-19
0.00073899
2.65804e-19
0.00073899
-2.16058e-19
0.00073899
-2.25289e-19
0.00073899
1.54951e-19
0.00073899
5.53442e-19
0.00073899
-3.1807e-19
0.00073899
-6.32768e-19
0.00073899
7.75625e-19
0.00073899
4.79446e-19
0.00073899
-4.78977e-19
0.00073899
9.49011e-20
0.00073899
7.12357e-19
0.00073899
8.11419e-19
0.00073899
9.62866e-19
0.00073899
9.8569e-19
0.00073899
4.13434e-19
0.00073899
8.81598e-20
0.00073899
8.82518e-19
0.00073899
2.43486e-19
0.00073899
8.12714e-20
0.00073899
3.54308e-19
0.00073899
1.70712e-19
0.00073899
3.32479e-19
0.00073899
6.34075e-19
0.00073899
6.02108e-19
0.00073899
5.28012e-19
0.00073899
1.72037e-19
0.00073899
-9.9817e-19
0.00073899
-2.80121e-19
0.00073899
8.64282e-19
0.00073899
-5.06723e-19
0.00073899
-8.02997e-19
0.00073899
2.01129e-19
0.00073899
1.97986e-19
0.00073899
-3.92559e-19
0.00073899
-4.86921e-19
0.00073899
-3.08781e-19
0.00073899
-5.67612e-19
0.00073899
-5.63537e-19
0.00073899
-2.97582e-19
0.00073899
3.70577e-19
0.00073899
9.31473e-19
0.00073899
-9.45391e-20
0.00073899
-6.01226e-19
0.00073899
-1.9626e-19
0.00073899
1.04884e-18
0.00073899
4.57692e-19
0.00073899
-1.38121e-18
0.00073899
-8.55443e-19
0.00073899
8.57929e-19
0.00073899
6.89351e-19
0.00073899
-1.09229e-20
0.00073899
-3.50252e-19
0.00073899
2.23503e-19
0.00073899
8.80387e-19
0.00073899
4.9509e-20
0.00073899
-4.61138e-19
0.00073899
7.48833e-20
0.00073899
-6.66067e-19
0.00073899
-8.35369e-19
0.00073899
-2.73118e-20
0.00073899
-3.56846e-19
0.00073899
-1.91939e-19
0.00073899
-6.96782e-20
0.00073899
7.96826e-19
0.00073899
-4.59224e-19
0.00073899
-4.32551e-19
0.00073899
6.06603e-19
0.00073899
1.20507e-19
0.00073899
-3.61397e-19
0.00073899
7.3536e-19
0.00073899
8.35198e-19
0.00073899
-8.26319e-19
0.00073899
-8.65012e-19
0.00073899
6.40884e-19
0.00073899
1.13178e-18
0.00073899
-6.22021e-19
0.00073899
-2.76449e-19
0.00073899
1.62201e-18
0.00073899
-4.04445e-20
0.00073899
-1.25574e-18
0.00073899
2.50006e-19
0.00073899
-5.21075e-19
0.00073899
1.20634e-19
0.00073899
1.26041e-18
0.00073899
-6.24336e-19
0.00073899
-2.83177e-19
0.00073899
1.39861e-19
0.00073899
-9.66097e-19
0.00073899
-2.56724e-19
0.00073899
9.00224e-20
0.00073899
7.40685e-19
0.00073899
-1.36966e-19
0.00073899
-8.70466e-19
0.00073899
-2.03709e-19
0.00073899
1.09319e-19
0.00073899
-1.69857e-19
0.00073899
3.26901e-20
0.00073899
2.86566e-19
0.00073899
-8.10855e-19
0.00073899
8.58302e-19
0.00073899
1.29222e-18
0.00073899
-2.65452e-19
0.00073899
3.32601e-19
0.00073899
9.81633e-19
0.00073899
-2.38727e-19
0.00073899
-7.73095e-19
0.00073899
1.3734e-19
0.00073899
1.01886e-18
0.00073899
-5.0343e-19
0.00073899
-5.84029e-19
0.00073899
9.60073e-19
0.00073899
-3.19127e-19
0.00073899
-8.42203e-19
0.00073899
-4.82397e-19
0.00073899
-4.33101e-19
0.00073899
1.48374e-18
0.00073899
8.5624e-19
0.00073899
-6.12756e-19
0.00073899
2.5384e-19
0.00073899
2.97043e-19
0.00073899
-2.55322e-19
0.00073899
-7.62173e-19
0.00073899
-8.63326e-19
0.00073899
-1.57065e-19
0.00073899
1.58354e-18
0.00073899
9.03818e-19
0.00073899
7.92736e-19
0.00073899
1.7222e-18
0.00073899
-4.61685e-19
0.00073899
-1.6341e-18
0.00073899
-3.96152e-19
0.00073899
2.08569e-19
0.00073899
-8.22065e-19
0.00073899
1.29941e-18
0.00073899
4.69949e-19
0.00073899
4.57808e-19
0.00073899
1.06465e-18
0.00073899
-1.70324e-18
0.00073899
-1.39442e-18
0.00073899
-3.20883e-20
0.00073899
1.81299e-19
0.00073899
3.67086e-19
0.00073899
3.73388e-19
0.00073899
-8.80758e-19
0.00073899
3.33061e-19
0.00073899
-4.78321e-19
0.00073899
-3.58138e-19
0.00073899
-7.39476e-19
0.00073899
-2.77456e-20
0.00073899
1.64528e-18
0.00073899
1.06435e-18
0.00073899
-6.45607e-19
0.00073899
-1.28757e-18
0.00073899
-2.73063e-19
0.00073899
-7.0131e-19
0.00073899
5.87414e-20
0.00073899
1.90607e-19
0.00073899
5.0451e-19
0.00073899
1.65553e-18
0.00073899
1.77821e-18
0.00073899
-3.97956e-19
0.00073899
-6.63065e-19
0.00073899
-7.21535e-19
0.00073899
-4.60167e-19
0.00073899
5.74071e-19
0.00073899
-3.44853e-19
0.00073899
8.53496e-19
0.00073899
1.0555e-18
0.00073899
1.54947e-19
0.00073899
-4.9203e-19
0.00073899
1.59422e-19
0.00073899
-4.75731e-19
0.00073899
-1.10486e-18
0.00073899
3.76012e-19
0.00073899
1.44009e-18
0.00073899
-1.01962e-19
0.00073899
-8.00973e-19
0.00073899
5.52257e-19
0.00073899
-1.97787e-19
0.00073899
-8.63925e-20
0.00073899
-4.69437e-20
0.00073899
2.15307e-20
0.00073899
4.10156e-19
0.00073899
1.63363e-18
0.00073899
-8.57484e-20
0.00073899
-1.14293e-18
0.00073899
5.30031e-19
0.00073899
-3.5937e-19
0.00073899
-1.22196e-18
0.00073899
-1.00148e-19
0.00073899
-2.97083e-19
0.00073899
1.07355e-18
0.00073899
2.16248e-18
0.00073899
-5.27794e-19
0.00073899
7.14506e-20
0.00073899
-1.44397e-18
0.00073899
-1.0525e-18
0.00073899
2.0666e-18
0.00073899
-1.19473e-18
0.00073899
-2.38932e-19
0.00073899
3.71102e-18
0.00073899
-1.12026e-18
0.00073899
-2.23956e-18
0.00073899
-6.6376e-19
0.00073899
-1.01985e-18
0.00073899
5.90941e-19
0.00073899
-9.62433e-19
0.00073899
-1.56457e-19
0.00073899
1.80319e-18
0.00073899
9.95056e-19
0.00073899
-6.74637e-19
0.00073899
-1.4273e-18
0.00073899
-1.44649e-18
0.00073899
1.28508e-20
0.00073899
9.58034e-19
0.00073899
-1.70749e-18
0.00073899
1.32626e-18
0.00073899
3.3099e-19
0.00073899
-1.98551e-18
0.00073899
8.44929e-19
0.00073899
1.9186e-19
0.00073899
-1.9202e-18
0.00073899
-2.42699e-19
0.00073899
-4.47045e-19
0.00073899
-4.78618e-19
0.00073899
3.28629e-18
0.00073899
2.37055e-20
0.00073899
-3.67546e-18
0.00073899
-2.07879e-18
0.00073899
-4.29247e-18
-7.38986e-18
0.00121832
-6.35933e-18
0.00121832
-6.1109e-18
0.00121832
-5.16225e-18
0.00121832
-3.8148e-18
0.00121832
-2.6818e-18
0.00121832
-1.76155e-18
0.00121832
-1.3879e-18
0.00121832
-1.06979e-18
0.00121832
-9.54329e-19
0.00121832
-9.90898e-19
0.00121832
-1.18435e-18
0.00121832
-1.1251e-18
0.00121832
-1.08693e-18
0.00121832
-1.26156e-18
0.00121832
-1.11773e-18
0.00121832
-1.13742e-18
0.00121832
-8.43681e-19
0.00121832
-7.97799e-19
0.00121832
-2.81193e-19
0.00121832
1.53448e-20
0.00121832
-4.18605e-19
0.00121832
-3.8073e-19
0.00121832
-2.67844e-19
0.00121832
-1.92743e-19
0.00121832
-1.91553e-19
0.00121832
-3.75674e-19
0.00121832
-3.32784e-19
0.00121832
-1.37516e-19
0.00121832
-7.88536e-19
0.00121832
-1.03968e-18
0.00121832
-4.88604e-19
0.00121832
2.72424e-19
0.00121832
-4.52832e-20
0.00121832
-1.49811e-19
0.00121832
-2.30862e-20
0.00121832
3.14062e-19
0.00121832
-1.57746e-19
0.00121832
1.88721e-19
0.00121832
5.98489e-19
0.00121832
3.15178e-19
0.00121832
4.30594e-19
0.00121832
1.09295e-19
0.00121832
-5.3647e-20
0.00121832
-3.76469e-19
0.00121832
-2.41441e-19
0.00121832
-1.17968e-19
0.00121832
-5.15016e-20
0.00121832
-3.68681e-19
0.00121832
-2.08037e-19
0.00121832
-8.84164e-20
0.00121832
-2.58458e-19
0.00121832
-1.07972e-18
0.00121832
-1.48787e-18
0.00121832
-9.26848e-19
0.00121832
-1.34733e-19
0.00121832
-2.46717e-19
0.00121832
1.85942e-19
0.00121832
-2.62577e-19
0.00121832
-4.20835e-19
0.00121832
9.45417e-20
0.00121832
-4.3785e-20
0.00121832
4.58226e-19
0.00121832
4.85844e-19
0.00121832
6.74051e-19
0.00121832
9.77578e-19
0.00121832
6.65249e-19
0.00121832
-1.64187e-19
0.00121832
-3.32099e-19
0.00121832
2.90064e-20
0.00121832
-1.01275e-19
0.00121832
-1.64018e-19
0.00121832
3.56142e-20
0.00121832
4.92012e-19
0.00121832
-1.82534e-19
0.00121832
-3.71661e-19
0.00121832
1.1948e-18
0.00121832
1.03245e-18
0.00121832
-1.02988e-19
0.00121832
2.48316e-19
0.00121832
1.1964e-18
0.00121832
1.67565e-18
0.00121832
1.17261e-18
0.00121832
1.40849e-18
0.00121832
1.10358e-18
0.00121832
7.76315e-19
0.00121832
1.0163e-18
0.00121832
5.9575e-19
0.00121832
6.96483e-19
0.00121832
5.37279e-19
0.00121832
8.28806e-19
0.00121832
1.13855e-18
0.00121832
8.1453e-19
0.00121832
9.40786e-19
0.00121832
1.12632e-18
0.00121832
6.02587e-19
0.00121832
-5.19442e-19
0.00121832
-3.99266e-19
0.00121832
3.34802e-19
0.00121832
-8.19338e-19
0.00121832
-1.20653e-18
0.00121832
4.32077e-19
0.00121832
4.43379e-19
0.00121832
-3.71676e-19
0.00121832
-1.0757e-18
0.00121832
-9.43293e-19
0.00121832
-8.71913e-19
0.00121832
-8.68914e-19
0.00121832
-5.93763e-19
0.00121832
1.11766e-18
0.00121832
1.09464e-18
0.00121832
-1.18857e-19
0.00121832
-5.15068e-19
0.00121832
-1.78465e-19
0.00121832
1.12047e-18
0.00121832
5.75573e-19
0.00121832
-1.14395e-18
0.00121832
-5.28474e-19
0.00121832
9.02506e-19
0.00121832
8.88423e-19
0.00121832
-3.92105e-19
0.00121832
-4.24953e-19
0.00121832
2.8175e-19
0.00121832
5.53852e-19
0.00121832
-1.03741e-19
0.00121832
-3.34221e-19
0.00121832
-1.91083e-19
0.00121832
-9.98292e-19
0.00121832
-7.19944e-19
0.00121832
-1.99715e-19
0.00121832
-5.31491e-19
0.00121832
4.57523e-20
0.00121832
2.08023e-19
0.00121832
5.59788e-19
0.00121832
-2.86008e-19
0.00121832
-5.564e-19
0.00121832
5.80447e-19
0.00121832
9.1299e-20
0.00121832
1.04165e-19
0.00121832
1.1296e-18
0.00121832
1.00498e-18
0.00121832
-6.02317e-19
0.00121832
-1.27223e-18
0.00121832
1.24975e-18
0.00121832
1.60247e-18
0.00121832
-1.15934e-18
0.00121832
-4.4231e-22
0.00121832
2.22651e-18
0.00121832
-2.13433e-19
0.00121832
-1.70971e-18
0.00121832
-6.47453e-20
0.00121832
-2.65113e-19
0.00121832
6.52393e-19
0.00121832
9.2945e-19
0.00121832
-7.18633e-19
0.00121832
-2.851e-19
0.00121832
-5.60236e-20
0.00121832
-1.15908e-18
0.00121832
-1.24249e-18
0.00121832
-4.51572e-19
0.00121832
1.15483e-18
0.00121832
4.12212e-19
0.00121832
-7.08239e-19
0.00121832
-5.72699e-19
0.00121832
-3.10793e-19
0.00121832
2.82083e-20
0.00121832
4.3284e-21
0.00121832
-7.62547e-20
0.00121832
-4.65469e-19
0.00121832
1.26133e-18
0.00121832
1.83221e-18
0.00121832
2.35898e-19
0.00121832
1.95326e-19
0.00121832
8.82408e-19
0.00121832
1.63638e-19
0.00121832
-8.06324e-19
0.00121832
5.60469e-20
0.00121832
9.72442e-19
0.00121832
-7.67378e-19
0.00121832
-7.12684e-19
0.00121832
1.27082e-18
0.00121832
-5.79629e-20
0.00121832
-1.09048e-18
0.00121832
-6.8153e-19
0.00121832
-3.46727e-19
0.00121832
1.22074e-18
0.00121832
4.86596e-19
0.00121832
-3.63034e-19
0.00121832
3.47634e-20
0.00121832
1.09541e-18
0.00121832
-1.74051e-19
0.00121832
-1.0532e-18
0.00121832
-9.55851e-19
0.00121832
4.37079e-19
0.00121832
2.26655e-18
0.00121832
1.21959e-18
0.00121832
1.43519e-18
0.00121832
2.0256e-18
0.00121832
-7.56168e-19
0.00121832
-1.93641e-18
0.00121832
-7.4647e-20
0.00121832
8.7895e-20
0.00121832
-7.22629e-19
0.00121832
1.52745e-18
0.00121832
7.5072e-19
0.00121832
1.32455e-18
0.00121832
1.4244e-18
0.00121832
-2.01745e-18
0.00121832
-2.04671e-18
0.00121832
-3.15679e-19
0.00121832
2.04948e-19
0.00121832
2.11242e-19
0.00121832
1.64179e-19
0.00121832
-8.67841e-19
0.00121832
4.78396e-20
0.00121832
-1.27527e-18
0.00121832
-3.41988e-19
0.00121832
-1.11717e-18
0.00121832
2.15541e-19
0.00121832
2.40483e-18
0.00121832
1.16524e-18
0.00121832
-8.81479e-19
0.00121832
-1.2007e-18
0.00121832
-1.07071e-19
0.00121832
-7.77365e-19
0.00121832
7.99307e-21
0.00121832
-2.481e-19
0.00121832
7.1299e-19
0.00121832
2.28833e-18
0.00121832
2.32786e-18
0.00121832
-2.1748e-19
0.00121832
-5.78426e-19
0.00121832
-7.50744e-19
0.00121832
-7.31616e-19
0.00121832
7.2639e-19
0.00121832
-1.23628e-19
0.00121832
1.06795e-18
0.00121832
1.6814e-18
0.00121832
1.77153e-19
0.00121832
-8.03165e-21
0.00121832
-1.15316e-19
0.00121832
-8.4182e-19
0.00121832
-8.42245e-19
0.00121832
-1.8549e-19
0.00121832
1.88195e-18
0.00121832
6.32274e-19
0.00121832
-5.81777e-19
0.00121832
3.29999e-19
0.00121832
-2.29853e-19
0.00121832
4.20224e-19
0.00121832
9.56665e-19
0.00121832
-6.81371e-20
0.00121832
7.42523e-20
0.00121832
1.54294e-18
0.00121832
1.11031e-19
0.00121832
-1.35124e-18
0.00121832
-1.3296e-19
0.00121832
4.70416e-21
0.00121832
-6.88077e-19
0.00121832
-4.1313e-19
0.00121832
-1.03411e-18
0.00121832
1.64904e-18
0.00121832
2.716e-18
0.00121832
-2.33722e-19
0.00121832
-1.82145e-20
0.00121832
-2.2046e-18
0.00121832
-2.02832e-18
0.00121832
2.59857e-18
0.00121832
-1.70624e-19
0.00121832
2.32836e-19
0.00121832
3.59968e-18
0.00121832
-1.40736e-18
0.00121832
-2.98398e-18
0.00121832
-6.37422e-19
0.00121832
-1.54066e-18
0.00121832
-7.4575e-19
0.00121832
3.09385e-19
0.00121832
1.97328e-19
0.00121832
1.44057e-18
0.00121832
1.2353e-18
0.00121832
-3.63766e-19
0.00121832
-2.107e-18
0.00121832
-2.93581e-18
0.00121832
-5.53759e-20
0.00121832
1.24151e-18
0.00121832
-2.55701e-18
0.00121832
1.17219e-18
0.00121832
1.0278e-18
0.00121832
-3.42648e-18
0.00121832
1.38043e-18
0.00121832
-4.80566e-20
0.00121832
-3.61724e-18
0.00121832
-7.39508e-19
0.00121832
1.22564e-19
0.00121832
-3.99504e-19
0.00121832
3.42997e-18
0.00121832
-4.40463e-19
0.00121832
-4.25262e-18
0.00121832
-2.22362e-18
0.00121832
-4.32604e-18
-6.27155e-18
0.00168765
-4.94851e-18
0.00168765
-5.88438e-18
0.00168765
-5.38898e-18
0.00168765
-4.32562e-18
0.00168765
-3.50519e-18
0.00168765
-2.38717e-18
0.00168765
-1.93728e-18
0.00168765
-1.57863e-18
0.00168765
-1.64469e-18
0.00168765
-1.81861e-18
0.00168765
-1.94268e-18
0.00168765
-2.09886e-18
0.00168765
-2.03585e-18
0.00168765
-1.81903e-18
0.00168765
-1.87935e-18
0.00168765
-1.8316e-18
0.00168765
-1.36416e-18
0.00168765
-1.66723e-18
0.00168765
-1.2098e-18
0.00168765
-4.91858e-19
0.00168765
-1.54193e-19
0.00168765
-8.68195e-19
0.00168765
-3.52727e-19
0.00168765
-5.40477e-19
0.00168765
-7.07541e-19
0.00168765
-1.00774e-18
0.00168765
-9.67529e-19
0.00168765
-7.41588e-19
0.00168765
-1.06356e-18
0.00168765
-1.44157e-18
0.00168765
-8.12647e-19
0.00168765
-1.99764e-20
0.00168765
1.68918e-20
0.00168765
2.0255e-19
0.00168765
6.96356e-20
0.00168765
6.29922e-20
0.00168765
-2.6728e-19
0.00168765
5.66118e-19
0.00168765
8.33716e-19
0.00168765
6.66826e-19
0.00168765
2.88547e-19
0.00168765
2.64181e-20
0.00168765
-2.62374e-19
0.00168765
-3.39893e-19
0.00168765
-3.21803e-19
0.00168765
2.70949e-19
0.00168765
-3.85778e-19
0.00168765
-7.55886e-19
0.00168765
-7.2044e-19
0.00168765
-4.84426e-19
0.00168765
-9.94706e-19
0.00168765
-1.60065e-18
0.00168765
-1.98087e-18
0.00168765
-9.5812e-19
0.00168765
-7.80353e-19
0.00168765
-9.33015e-19
0.00168765
-2.17238e-19
0.00168765
-3.23393e-19
0.00168765
-7.10358e-20
0.00168765
1.10295e-19
0.00168765
9.80336e-20
0.00168765
7.92432e-19
0.00168765
7.28292e-19
0.00168765
1.13879e-18
0.00168765
1.10612e-18
0.00168765
9.54631e-19
0.00168765
7.55371e-20
0.00168765
-6.13316e-19
0.00168765
1.12637e-19
0.00168765
-3.27403e-20
0.00168765
-2.47464e-19
0.00168765
7.96503e-20
0.00168765
7.20271e-19
0.00168765
-2.27491e-20
0.00168765
-3.51541e-19
0.00168765
1.57437e-18
0.00168765
1.56332e-18
0.00168765
7.08242e-19
0.00168765
7.06118e-19
0.00168765
1.9673e-18
0.00168765
2.78891e-18
0.00168765
1.8538e-18
0.00168765
1.82064e-18
0.00168765
1.81641e-18
0.00168765
1.2058e-18
0.00168765
1.22791e-18
0.00168765
9.60487e-19
0.00168765
1.23849e-18
0.00168765
1.02213e-18
0.00168765
1.6762e-18
0.00168765
2.46054e-18
0.00168765
1.37211e-18
0.00168765
1.21242e-18
0.00168765
1.14073e-18
0.00168765
6.73631e-19
0.00168765
-5.0725e-20
0.00168765
2.49102e-19
0.00168765
3.89312e-19
0.00168765
-8.72658e-19
0.00168765
-1.10738e-18
0.00168765
4.37368e-19
0.00168765
5.71665e-19
0.00168765
-2.92823e-19
0.00168765
-1.06229e-18
0.00168765
-1.15258e-18
0.00168765
-8.93435e-19
0.00168765
-1.17933e-18
0.00168765
-7.27176e-19
0.00168765
1.32244e-18
0.00168765
1.23218e-18
0.00168765
-2.89456e-19
0.00168765
-4.84382e-19
0.00168765
-9.34055e-20
0.00168765
1.08073e-18
0.00168765
6.4047e-19
0.00168765
-7.88933e-19
0.00168765
-4.61205e-19
0.00168765
5.4368e-19
0.00168765
6.33909e-19
0.00168765
-3.58263e-19
0.00168765
-5.10583e-19
0.00168765
-1.84223e-21
0.00168765
5.39048e-19
0.00168765
-5.80172e-20
0.00168765
-2.16282e-19
0.00168765
-3.26019e-19
0.00168765
-7.79009e-19
0.00168765
-1.0559e-18
0.00168765
-6.3729e-19
0.00168765
-3.22868e-19
0.00168765
-1.71454e-19
0.00168765
-1.15163e-19
0.00168765
3.35793e-19
0.00168765
-1.38526e-19
0.00168765
-4.92705e-19
0.00168765
1.04419e-18
0.00168765
-1.90347e-19
0.00168765
5.42749e-19
0.00168765
1.64441e-18
0.00168765
1.02683e-18
0.00168765
-1.90478e-19
0.00168765
-7.73189e-19
0.00168765
1.53626e-18
0.00168765
1.95718e-18
0.00168765
-1.03489e-18
0.00168765
-5.86719e-20
0.00168765
2.24029e-18
0.00168765
-3.86848e-19
0.00168765
-1.54373e-18
0.00168765
-8.81309e-20
0.00168765
-3.93294e-19
0.00168765
6.11431e-19
0.00168765
9.62281e-19
0.00168765
-8.00485e-19
0.00168765
-4.32614e-19
0.00168765
-2.3145e-19
0.00168765
-1.28984e-18
0.00168765
-1.73425e-18
0.00168765
-1.00173e-18
0.00168765
1.48111e-18
0.00168765
8.06059e-19
0.00168765
-2.06352e-19
0.00168765
-5.68894e-19
0.00168765
-7.00384e-19
0.00168765
5.65912e-19
0.00168765
1.43808e-19
0.00168765
-3.51279e-19
0.00168765
-4.76331e-19
0.00168765
2.17407e-18
0.00168765
2.17456e-18
0.00168765
-4.65702e-20
0.00168765
2.0672e-19
0.00168765
1.04427e-18
0.00168765
-2.93722e-20
0.00168765
-5.05246e-19
0.00168765
5.37086e-19
0.00168765
7.47197e-19
0.00168765
-8.05216e-19
0.00168765
-9.15861e-19
0.00168765
1.294e-18
0.00168765
2.95879e-19
0.00168765
-1.73727e-18
0.00168765
-7.22433e-19
0.00168765
-1.56547e-19
0.00168765
5.93984e-19
0.00168765
4.86833e-19
0.00168765
2.47175e-19
0.00168765
-3.64605e-19
0.00168765
6.51159e-19
0.00168765
5.39005e-19
0.00168765
-9.68761e-19
0.00168765
-1.32016e-19
0.00168765
9.12242e-19
0.00168765
2.38303e-18
0.00168765
1.7515e-18
0.00168765
1.68244e-18
0.00168765
2.51411e-18
0.00168765
-4.29631e-19
0.00168765
-1.96606e-18
0.00168765
-9.91358e-20
0.00168765
4.75697e-20
0.00168765
-5.04992e-19
0.00168765
1.5545e-18
0.00168765
1.1375e-18
0.00168765
2.09827e-18
0.00168765
1.89138e-18
0.00168765
-2.23393e-18
0.00168765
-2.5931e-18
0.00168765
-9.05122e-19
0.00168765
2.72556e-20
0.00168765
4.11986e-19
0.00168765
3.29637e-20
0.00168765
-5.17649e-19
0.00168765
-4.14067e-19
0.00168765
-2.3278e-18
0.00168765
-2.56879e-19
0.00168765
-8.88772e-19
0.00168765
-2.35318e-19
0.00168765
2.79502e-18
0.00168765
1.27004e-18
0.00168765
-1.01821e-18
0.00168765
-1.03832e-18
0.00168765
-1.6662e-19
0.00168765
-2.03164e-19
0.00168765
-4.9656e-20
0.00168765
-1.43411e-19
0.00168765
1.41633e-18
0.00168765
2.12079e-18
0.00168765
2.80769e-18
0.00168765
1.37889e-19
0.00168765
-3.1635e-19
0.00168765
-6.35436e-19
0.00168765
-8.49138e-19
0.00168765
3.30883e-19
0.00168765
2.12213e-19
0.00168765
1.59012e-18
0.00168765
1.81355e-18
0.00168765
8.58737e-20
0.00168765
-2.59149e-19
0.00168765
-5.62626e-19
0.00168765
-4.94457e-19
0.00168765
-4.57126e-19
0.00168765
-1.69508e-19
0.00168765
2.48782e-18
0.00168765
9.16025e-19
0.00168765
6.17705e-19
0.00168765
1.38811e-19
0.00168765
-5.96348e-19
0.00168765
7.61566e-19
0.00168765
1.69962e-18
0.00168765
2.17454e-19
0.00168765
1.33577e-19
0.00168765
6.50065e-19
0.00168765
-8.89562e-20
0.00168765
-7.1872e-19
0.00168765
-6.19059e-19
0.00168765
1.05266e-19
0.00168765
-5.78785e-19
0.00168765
-6.52126e-19
0.00168765
-1.27174e-18
0.00168765
2.21907e-18
0.00168765
3.29543e-18
0.00168765
-9.98342e-20
0.00168765
-3.58084e-19
0.00168765
-2.65096e-18
0.00168765
-2.47537e-18
0.00168765
2.97273e-18
0.00168765
1.05656e-18
0.00168765
-1.26817e-19
0.00168765
3.40571e-18
0.00168765
-1.89985e-18
0.00168765
-3.63588e-18
0.00168765
-2.28207e-19
0.00168765
-1.97982e-18
0.00168765
-1.80751e-18
0.00168765
1.83311e-18
0.00168765
7.96945e-19
0.00168765
2.05458e-19
0.00168765
1.12348e-18
0.00168765
-5.00006e-19
0.00168765
-2.87309e-18
0.00168765
-4.09943e-18
0.00168765
1.23621e-19
0.00168765
1.72543e-18
0.00168765
-3.31461e-18
0.00168765
7.77583e-19
0.00168765
8.54e-19
0.00168765
-4.02134e-18
0.00168765
6.637e-19
0.00168765
1.54494e-19
0.00168765
-4.70965e-18
0.00168765
-1.53709e-18
0.00168765
9.1381e-19
0.00168765
-9.14965e-19
0.00168765
2.87776e-18
0.00168765
-2.54794e-19
0.00168765
-4.82204e-18
0.00168765
-1.83918e-18
0.00168765
-3.39533e-18
-5.23697e-18
0.00214698
-5.03673e-18
0.00214698
-5.19572e-18
0.00214698
-5.37083e-18
0.00214698
-5.08538e-18
0.00214698
-3.92633e-18
0.00214698
-3.37451e-18
0.00214698
-2.36257e-18
0.00214698
-2.12074e-18
0.00214698
-2.28789e-18
0.00214698
-2.5258e-18
0.00214698
-2.43056e-18
0.00214698
-2.74141e-18
0.00214698
-3.12666e-18
0.00214698
-3.16214e-18
0.00214698
-2.63624e-18
0.00214698
-2.60162e-18
0.00214698
-2.42888e-18
0.00214698
-2.2942e-18
0.00214698
-1.73771e-18
0.00214698
-9.95651e-19
0.00214698
-1.01988e-18
0.00214698
-8.59732e-19
0.00214698
-9.85448e-19
0.00214698
-1.05068e-18
0.00214698
-8.01225e-19
0.00214698
-1.23919e-18
0.00214698
-1.61117e-18
0.00214698
-1.5373e-18
0.00214698