/*--------------------------------*- C++ -*----------------------------------*\
| =========                 |                                                 |
| \\      /  F ield         | OpenFOAM: The Open Source CFD Toolbox           |
|  \\    /   O peration     | Version:  2406                                  |
|   \\  /    A nd           | Website:  www.openfoam.com                      |
|    \\/     M anipulation  |                                                 |
\*---------------------------------------------------------------------------*/
FoamFile
{
    version     2.0;
    format      ascii;
    arch        "LSB;label=32;scalar=64";
    class       surfaceScalarField;
    location    "12.99375";
    object      phi_0;
}
// * * * * * * * * * * * * * * * * * * * * * * * * * * * * * * * * * * * * * //

dimensions      [0 3 -1 0 0 0 0];

oriented        oriented;

internalField   nonuniform List<scalar> 
59600
(
0.000249663
4.04824e-17
0.000249663
1.44455e-17
0.000249663
6.32554e-18
0.000249663
3.4736e-18
0.000249663
2.04755e-18
0.000249663
1.43976e-18
0.000249663
1.0084e-18
0.000249663
8.1001e-19
0.000249663
6.22165e-19
0.000249663
5.44689e-19
0.000249663
3.56546e-19
0.000249663
3.45869e-19
0.000249663
2.51809e-19
0.000249663
2.19533e-19
0.000249663
1.0487e-19
0.000249663
-8.19588e-21
0.000249663
7.70256e-20
0.000249663
1.28738e-19
0.000249663
7.08519e-20
0.000249663
1.24185e-19
0.000249663
1.20219e-19
0.000249663
-5.34043e-21
0.000249663
1.51726e-19
0.000249663
2.47153e-20
0.000249663
6.58059e-20
0.000249663
6.99015e-20
0.000249663
3.38662e-20
0.000249663
3.01829e-20
0.000249663
-1.59062e-19
0.000249663
-8.60464e-20
0.000249663
3.09993e-20
0.000249663
-4.25257e-20
0.000249663
1.00611e-19
0.000249663
2.44727e-19
0.000249663
-6.32832e-20
0.000249663
3.0702e-20
0.000249663
-2.79828e-20
0.000249663
6.19911e-20
0.000249663
1.2256e-19
0.000249663
-1.88819e-20
0.000249663
2.06223e-19
0.000249663
-5.47764e-20
0.000249663
3.04342e-20
0.000249663
2.18663e-19
0.000249663
-8.46516e-20
0.000249663
3.10752e-20
0.000249663
1.2629e-19
0.000249663
-1.15506e-19
0.000249663
-6.05748e-21
0.000249663
1.48185e-19
0.000249663
5.5815e-20
0.000249663
-6.65972e-20
0.000249663
-3.39161e-19
0.000249663
-1.80794e-19
0.000249663
1.5192e-19
0.000249663
-6.10542e-20
0.000249663
1.1551e-19
0.000249663
-1.06066e-19
0.000249663
-2.27589e-19
0.000249663
1.07875e-19
0.000249663
8.55748e-20
0.000249663
2.32169e-21
0.000249663
8.72095e-20
0.000249663
2.62622e-19
0.000249663
1.51968e-20
0.000249663
2.73694e-19
0.000249663
2.69295e-20
0.000249663
-5.56968e-20
0.000249663
2.04349e-19
0.000249663
-1.8743e-19
0.000249663
-2.16492e-19
0.000249663
4.57989e-20
0.000249663
3.37726e-19
0.000249663
-2.09607e-19
0.000249663
-3.61669e-19
0.000249663
4.77377e-19
0.000249663
1.38365e-19
0.000249663
-2.93063e-19
0.000249663
1.66267e-20
0.000249663
3.92171e-19
0.000249663
2.67977e-19
0.000249663
2.74763e-19
0.000249663
4.91726e-19
0.000249663
1.50357e-19
0.000249663
-3.32689e-19
0.000249663
4.99235e-19
0.000249663
3.75646e-19
0.000249663
-1.45705e-19
0.000249663
5.9664e-20
0.000249663
-1.71449e-20
0.000249663
-2.21629e-20
0.000249663
2.51942e-19
0.000249663
2.26586e-19
0.000249663
7.50087e-20
0.000249663
1.04054e-20
0.000249663
-5.95542e-19
0.000249663
-1.61127e-20
0.000249663
3.52025e-19
0.000249663
-3.29665e-19
0.000249663
-3.43369e-19
0.000249663
-2.96162e-20
0.000249663
1.73196e-19
0.000249663
-1.36557e-19
0.000249663
-8.0923e-20
0.000249663
1.16279e-19
0.000249663
-2.92179e-19
0.000249663
-2.50028e-19
0.000249663
6.64308e-20
0.000249663
1.09732e-19
0.000249663
4.61173e-19
0.000249663
-1.41804e-19
0.000249663
-4.69397e-19
0.000249663
6.04052e-20
0.000249663
4.05684e-19
0.000249663
1.77693e-19
0.000249663
-4.15937e-19
0.000249663
-4.17907e-19
0.000249663
2.22482e-19
0.000249663
3.04802e-19
0.000249663
-4.37085e-20
0.000249663
-1.46073e-19
0.000249663
6.00871e-20
0.000249663
4.37261e-19
0.000249663
6.73305e-20
0.000249663
-4.95303e-19
0.000249663
2.2128e-19
0.000249663
3.76666e-20
0.000249663
-4.01074e-19
0.000249663
-6.31697e-21
0.000249663
-1.02888e-19
0.000249663
-3.45499e-19
0.000249663
-5.66082e-20
0.000249663
6.38644e-19
0.000249663
-2.93729e-19
0.000249663
-3.80449e-19
0.000249663
2.94227e-19
0.000249663
2.10413e-19
0.000249663
-3.15375e-19
0.000249663
3.59244e-19
0.000249663
4.28643e-19
0.000249663
-5.24953e-19
0.000249663
-2.91642e-19
0.000249663
1.91181e-19
0.000249663
4.24304e-19
0.000249663
-2.25318e-19
0.000249663
-1.95128e-19
0.000249663
6.47034e-19
0.000249663
-1.35685e-19
0.000249663
-5.37949e-19
0.000249663
4.49239e-19
0.000249663
-3.24006e-19
0.000249663
-1.13951e-19
0.000249663
9.6456e-19
0.000249663
-3.22554e-19
0.000249663
-2.62005e-19
0.000249663
2.62445e-19
0.000249663
-6.16937e-19
0.000249663
-5.07015e-20
0.000249663
1.51049e-19
0.000249663
3.32608e-19
0.000249663
-4.12447e-20
0.000249663
-2.5432e-19
0.000249663
-1.24437e-19
0.000249663
1.11099e-19
0.000249663
-5.20492e-20
0.000249663
4.95772e-21
0.000249663
3.05049e-19
0.000249663
-8.37643e-19
0.000249663
5.82574e-19
0.000249663
7.68331e-19
0.000249663
-7.23539e-19
0.000249663
4.50022e-19
0.000249663
6.35645e-19
0.000249663
-7.82992e-19
0.000249663
-1.53554e-19
0.000249663
1.89347e-19
0.000249663
2.73793e-19
0.000249663
5.17759e-20
0.000249663
-2.46788e-19
0.000249663
4.28057e-19
0.000249663
-2.37184e-19
0.000249663
-2.98428e-19
0.000249663
-1.5287e-19
0.000249663
-2.54983e-19
0.000249663
8.78873e-19
0.000249663
2.71201e-19
0.000249663
-4.73586e-19
0.000249663
3.38735e-19
0.000249663
-1.28009e-20
0.000249663
-9.84327e-20
0.000249663
-2.88796e-19
0.000249663
-3.62516e-19
0.000249663
-3.21719e-19
0.000249663
7.01584e-19
0.000249663
7.33111e-19
0.000249663
1.47282e-21
0.000249663
4.79859e-19
0.000249663
2.95566e-19
0.000249663
-9.22987e-19
0.000249663
-4.56847e-19
0.000249663
4.32073e-19
0.000249663
-4.67478e-19
0.000249663
5.20446e-19
0.000249663
3.55111e-19
0.000249663
1.65791e-19
0.000249663
2.09156e-19
0.000249663
-6.07558e-19
0.000249663
-3.77646e-19
0.000249663
8.39587e-20
0.000249663
-1.61315e-19
0.000249663
3.86047e-19
0.000249663
-3.712e-21
0.000249663
-5.89594e-19
0.000249663
6.79565e-19
0.000249663
-2.99992e-19
0.000249663
-3.13048e-19
0.000249663
-1.30279e-19
0.000249663
1.67044e-20
0.000249663
5.11017e-19
0.000249663
7.08263e-19
0.000249663
-1.64025e-19
0.000249663
-7.25081e-19
0.000249663
-2.83009e-19
0.000249663
-5.16709e-19
0.000249663
1.64306e-19
0.000249663
9.17861e-20
0.000249663
2.3525e-19
0.000249663
6.79265e-19
0.000249663
5.71947e-19
0.000249663
1.98249e-19
0.000249663
-3.20677e-19
0.000249663
-8.74273e-19
0.000249663
2.36965e-19
0.000249663
1.76988e-19
0.000249663
-5.1205e-19
0.000249663
6.38906e-19
0.000249663
3.5196e-19
0.000249663
4.43417e-19
0.000249663
-4.84102e-19
0.000249663
2.03227e-19
0.000249663
-1.19885e-19
0.000249663
-7.84257e-19
0.000249663
5.54131e-19
0.000249663
9.19597e-19
0.000249663
-3.97408e-19
0.000249663
-2.55882e-19
0.000249663
5.52972e-19
0.000249663
-3.62846e-19
0.000249663
1.11938e-20
0.000249663
-2.70514e-19
0.000249663
3.74061e-20
0.000249663
3.48328e-19
0.000249663
1.0893e-18
0.000249663
-3.19384e-19
0.000249663
-5.73037e-19
0.000249663
6.00713e-19
0.000249663
-4.41767e-19
0.000249663
-7.11652e-19
0.000249663
3.83848e-19
0.000249663
-1.71421e-20
0.000249663
4.02636e-19
0.000249663
1.03466e-18
0.000249663
-9.06735e-19
0.000249663
3.78496e-19
0.000249663
-4.3595e-19
0.000249663
-2.09814e-19
0.000249663
1.14352e-18
0.000249663
-1.18852e-18
0.000249663
-2.05844e-19
0.000249663
2.32605e-18
0.000249663
-8.94734e-19
0.000249663
-9.91427e-19
0.000249663
3.35993e-19
0.000249663
-6.4206e-19
0.000249663
1.09332e-18
0.000249663
-1.08676e-18
0.000249663
-1.37663e-19
0.000249663
1.49581e-18
0.000249663
6.32512e-19
0.000249663
-6.67694e-19
0.000249663
-5.15639e-19
0.000249663
-1.1683e-20
0.000249663
2.43808e-19
0.000249663
3.30651e-19
0.000249663
-5.91135e-19
0.000249663
1.39243e-18
0.000249663
-1.84552e-20
0.000249663
-7.50526e-19
0.000249663
1.03766e-18
0.000249663
8.02153e-19
0.000249663
-5.83321e-19
0.000249663
5.07077e-19
0.000249663
6.6003e-19
0.000249663
3.88843e-19
0.000249663
3.0805e-18
0.000249663
2.4475e-18
0.000249663
4.45626e-19
0.000249663
3.8348e-18
0.000249663
6.71024e-18
1.37686e-17
0.000738989
1.91514e-17
0.000738989
1.19956e-17
0.000738989
7.24447e-18
0.000738989
4.5104e-18
0.000738989
3.16478e-18
0.000738989
2.45352e-18
0.000738989
1.8456e-18
0.000738989
1.50504e-18
0.000738989
9.80032e-19
0.000738989
7.03852e-19
0.000738989
6.62746e-19
0.000738989
4.3593e-19
0.000738989
2.80105e-19
0.000738989
4.84275e-20
0.000738989
-1.18325e-19
0.000738989
4.17145e-20
0.000738989
-2.87581e-19
0.000738989
-1.40391e-19
0.000738989
2.29612e-19
0.000738989
2.62235e-19
0.000738989
1.35286e-20
0.000738989
1.28464e-19
0.000738989
1.93775e-19
0.000738989
3.3411e-20
0.000738989
1.06946e-19
0.000738989
9.09061e-20
0.000738989
-1.62811e-19
0.000738989
-7.79677e-20
0.000738989
-4.70287e-19
0.000738989
-3.12418e-19
0.000738989
-3.52225e-21
0.000738989
1.89464e-19
0.000738989
2.4374e-19
0.000738989
1.03488e-19
0.000738989
-1.03838e-19
0.000738989
1.07834e-19
0.000738989
6.34068e-20
0.000738989
1.13429e-19
0.000738989
2.96881e-19
0.000738989
1.4111e-19
0.000738989
4.84615e-19
0.000738989
1.55759e-19
0.000738989
6.92915e-20
0.000738989
1.34427e-19
0.000738989
-1.30231e-19
0.000738989
-3.03241e-20
0.000738989
1.96652e-19
0.000738989
-3.55034e-19
0.000738989
1.02658e-19
0.000738989
5.32967e-19
0.000738989
-2.02351e-19
0.000738989
-6.17269e-19
0.000738989
-7.62372e-19
0.000738989
-2.83631e-19
0.000738989
-7.58136e-21
0.000738989
-2.42229e-19
0.000738989
2.47176e-19
0.000738989
-1.81395e-19
0.000738989
-2.20236e-19
0.000738989
2.95016e-20
0.000738989
1.92465e-19
0.000738989
-9.2916e-21
0.000738989
2.52022e-20
0.000738989
6.33212e-19
0.000738989
4.88035e-19
0.000738989
5.5757e-19
0.000738989
-3.61627e-20
0.000738989
-3.36344e-19
0.000738989
3.13839e-19
0.000738989
-2.27106e-19
0.000738989
-2.25845e-19
0.000738989
1.65295e-19
0.000738989
4.91673e-19
0.000738989
-3.11221e-19
0.000738989
-5.05654e-19
0.000738989
7.9406e-19
0.000738989
5.00592e-19
0.000738989
-3.21411e-19
0.000738989
2.01196e-19
0.000738989
7.31474e-19
0.000738989
8.80993e-19
0.000738989
1.03895e-18
0.000738989
1.01713e-18
0.000738989
3.70899e-19
0.000738989
1.4562e-19
0.000738989
9.0373e-19
0.000738989
3.26794e-19
0.000738989
1.70027e-19
0.000738989
4.04981e-19
0.000738989
1.57291e-19
0.000738989
2.11236e-19
0.000738989
4.86525e-19
0.000738989
4.52698e-19
0.000738989
5.213e-19
0.000738989
1.46269e-19
0.000738989
-1.09622e-18
0.000738989
-2.99915e-19
0.000738989
8.57834e-19
0.000738989
-5.5821e-19
0.000738989
-7.5192e-19
0.000738989
2.19878e-19
0.000738989
1.88362e-19
0.000738989
-3.23024e-19
0.000738989
-4.70329e-19
0.000738989
-2.21261e-19
0.000738989
-4.03805e-19
0.000738989
-4.50328e-19
0.000738989
-1.50511e-19
0.000738989
4.56433e-19
0.000738989
8.62757e-19
0.000738989
-9.89584e-20
0.000738989
-5.9432e-19
0.000738989
-2.84097e-19
0.000738989
9.90066e-19
0.000738989
5.19975e-19
0.000738989
-1.27202e-18
0.000738989
-7.96087e-19
0.000738989
7.69438e-19
0.000738989
6.7756e-19
0.000738989
-8.53518e-20
0.000738989
-4.50957e-19
0.000738989
1.97969e-19
0.000738989
9.52835e-19
0.000738989
1.07825e-19
0.000738989
-4.1694e-19
0.000738989
5.75697e-20
0.000738989
-6.31293e-19
0.000738989
-8.22447e-19
0.000738989
-5.20816e-20
0.000738989
-2.92863e-19
0.000738989
-2.27539e-19
0.000738989
-1.00757e-19
0.000738989
8.24776e-19
0.000738989
-4.60256e-19
0.000738989
-4.33053e-19
0.000738989
5.77961e-19
0.000738989
8.33938e-20
0.000738989
-4.03623e-19
0.000738989
8.16574e-19
0.000738989
9.09018e-19
0.000738989
-8.61927e-19
0.000738989
-8.99256e-19
0.000738989
5.26557e-19
0.000738989
1.12854e-18
0.000738989
-6.9053e-19
0.000738989
-2.7883e-19
0.000738989
1.50978e-18
0.000738989
-6.26773e-20
0.000738989
-1.15228e-18
0.000738989
2.66191e-19
0.000738989
-5.4366e-19
0.000738989
2.23703e-19
0.000738989
1.27741e-18
0.000738989
-6.49229e-19
0.000738989
-3.44678e-19
0.000738989
7.32855e-20
0.000738989
-9.59266e-19
0.000738989
-3.32046e-19
0.000738989
3.73736e-20
0.000738989
7.91271e-19
0.000738989
-8.10245e-20
0.000738989
-7.40779e-19
0.000738989
-1.36645e-19
0.000738989
1.50559e-19
0.000738989
-3.71009e-20
0.000738989
1.00515e-19
0.000738989
2.94421e-19
0.000738989
-7.59116e-19
0.000738989
9.11483e-19
0.000738989
1.28431e-18
0.000738989
-3.47153e-19
0.000738989
2.99516e-19
0.000738989
1.02989e-18
0.000738989
-2.63194e-19
0.000738989
-7.89554e-19
0.000738989
1.21515e-19
0.000738989
1.05905e-18
0.000738989
-3.8864e-19
0.000738989
-4.96746e-19
0.000738989
1.08173e-18
0.000738989
-2.98651e-19
0.000738989
-9.64721e-19
0.000738989
-5.73493e-19
0.000738989
-4.48984e-19
0.000738989
1.5028e-18
0.000738989
8.71028e-19
0.000738989
-6.54502e-19
0.000738989
2.5567e-19
0.000738989
3.96905e-19
0.000738989
-2.67531e-19
0.000738989
-6.81573e-19
0.000738989
-7.52379e-19
0.000738989
-1.22346e-19
0.000738989
1.70911e-18
0.000738989
9.19191e-19
0.000738989
7.61455e-19
0.000738989
1.63807e-18
0.000738989
-4.29694e-19
0.000738989
-1.59409e-18
0.000738989
-3.30907e-19
0.000738989
2.55664e-19
0.000738989
-7.57469e-19
0.000738989
1.40607e-18
0.000738989
5.99788e-19
0.000738989
5.10414e-19
0.000738989
1.08855e-18
0.000738989
-1.64041e-18
0.000738989
-1.41142e-18
0.000738989
-2.04306e-20
0.000738989
1.1396e-19
0.000738989
3.28978e-19
0.000738989
3.96314e-19
0.000738989
-7.97882e-19
0.000738989
3.82813e-19
0.000738989
-3.80802e-19
0.000738989
-2.59292e-19
0.000738989
-7.52035e-19
0.000738989
1.72494e-20
0.000738989
1.63533e-18
0.000738989
1.02127e-18
0.000738989
-5.95981e-19
0.000738989
-1.22852e-18
0.000738989
-2.1399e-19
0.000738989
-7.50575e-19
0.000738989
-3.71428e-20
0.000738989
1.04836e-19
0.000738989
4.82324e-19
0.000738989
1.76489e-18
0.000738989
1.75641e-18
0.000738989
-2.71939e-19
0.000738989
-5.97057e-19
0.000738989
-7.27911e-19
0.000738989
-3.81092e-19
0.000738989
5.23866e-19
0.000738989
-3.89517e-19
0.000738989
8.17289e-19
0.000738989
1.03553e-18
0.000738989
3.47817e-19
0.000738989
-2.55381e-19
0.000738989
1.89815e-19
0.000738989
-4.71232e-19
0.000738989
-1.00907e-18
0.000738989
3.72568e-19
0.000738989
1.55077e-18
0.000738989
1.10758e-19
0.000738989
-6.60633e-19
0.000738989
6.56952e-19
0.000738989
-1.73971e-19
0.000738989
2.69861e-20
0.000738989
6.11288e-20
0.000738989
6.94849e-20
0.000738989
4.52461e-19
0.000738989
1.69926e-18
0.000738989
2.83894e-20
0.000738989
-1.03482e-18
0.000738989
6.14968e-19
0.000738989
-2.45173e-19
0.000738989
-1.14106e-18
0.000738989
2.81211e-20
0.000738989
-1.77951e-19
0.000738989
1.25317e-18
0.000738989
2.21165e-18
0.000738989
-5.63914e-19
0.000738989
1.80421e-19
0.000738989
-1.34787e-18
0.000738989
-9.77606e-19
0.000738989
2.13558e-18
0.000738989
-1.14675e-18
0.000738989
-8.8874e-20
0.000738989
3.89143e-18
0.000738989
-9.49679e-19
0.000738989
-2.14811e-18
0.000738989
-3.76388e-19
0.000738989
-7.88305e-19
0.000738989
7.63911e-19
0.000738989
-7.45897e-19
0.000738989
-3.00172e-21
0.000738989
2.01992e-18
0.000738989
1.30353e-18
0.000738989
-4.59028e-19
0.000738989
-1.08467e-18
0.000738989
-1.17048e-18
0.000738989
3.44701e-19
0.000738989
1.3839e-18
0.000738989
-1.31989e-18
0.000738989
1.74163e-18
0.000738989
8.92474e-19
0.000738989
-1.34407e-18
0.000738989
1.47894e-18
0.000738989
9.87384e-19
0.000738989
-1.01576e-18
0.000738989
9.49176e-19
0.000738989
1.10609e-18
0.000738989
1.42753e-18
0.000738989
5.74637e-18
0.000738989
3.44427e-18
0.000738989
1.36837e-18
0.000738989
5.48149e-18
0.000738989
7.61907e-18
1.16509e-17
0.00121832
1.12916e-17
0.00121832
8.62834e-18
0.00121832
6.0493e-18
0.00121832
4.22241e-18
0.00121832
3.27678e-18
0.00121832
2.62744e-18
0.00121832
2.10894e-18
0.00121832
1.58629e-18
0.00121832
1.08212e-18
0.00121832
7.01723e-19
0.00121832
2.89189e-19
0.00121832
8.15159e-20
0.00121832
3.23829e-20
0.00121832
-2.44459e-19
0.00121832
-2.88556e-19
0.00121832
-3.92416e-19
0.00121832
-3.47517e-19
0.00121832
-3.29134e-19
0.00121832
1.47291e-19
0.00121832
3.27684e-19
0.00121832
-4.04012e-20
0.00121832
-1.29128e-19
0.00121832
5.09803e-20
0.00121832
8.27444e-20
0.00121832
-6.3856e-20
0.00121832
-1.73064e-19
0.00121832
-8.39494e-20
0.00121832
-1.72192e-20
0.00121832
-7.35969e-19
0.00121832
-8.61848e-19
0.00121832
-1.9441e-19
0.00121832
2.12777e-19
0.00121832
1.1942e-19
0.00121832
7.59356e-20
0.00121832
1.39451e-19
0.00121832
3.19163e-19
0.00121832
-4.60454e-20
0.00121832
3.04225e-19
0.00121832
6.37358e-19
0.00121832
3.08925e-19
0.00121832
4.82105e-19
0.00121832
1.48832e-19
0.00121832
8.33709e-20
0.00121832
-9.2428e-20
0.00121832
-1.29513e-19
0.00121832
1.40112e-19
0.00121832
1.82256e-19
0.00121832
-2.06264e-19
0.00121832
-1.37847e-19
0.00121832
1.02583e-19
0.00121832
-1.2316e-19
0.00121832
-1.02452e-18
0.00121832
-1.50359e-18
0.00121832
-7.50491e-19
0.00121832
-2.00147e-19
0.00121832
-2.3852e-19
0.00121832
3.85409e-19
0.00121832
-7.53701e-20
0.00121832
-4.68651e-19
0.00121832
2.76098e-19
0.00121832
-3.35111e-20
0.00121832
1.48899e-19
0.00121832
3.76974e-19
0.00121832
6.88484e-19
0.00121832
9.97039e-19
0.00121832
6.93603e-19
0.00121832
-1.42454e-19
0.00121832
-3.23535e-19
0.00121832
6.02976e-20
0.00121832
3.53506e-20
0.00121832
-1.61367e-19
0.00121832
9.44195e-20
0.00121832
6.21478e-19
0.00121832
-1.75615e-19
0.00121832
-5.84505e-19
0.00121832
1.23245e-18
0.00121832
1.10197e-18
0.00121832
-3.24336e-20
0.00121832
2.78069e-19
0.00121832
1.23292e-18
0.00121832
1.70366e-18
0.00121832
1.24436e-18
0.00121832
1.50675e-18
0.00121832
1.14234e-18
0.00121832
7.62346e-19
0.00121832
1.12049e-18
0.00121832
8.20886e-19
0.00121832
7.99803e-19
0.00121832
5.79211e-19
0.00121832
8.73132e-19
0.00121832
1.12465e-18
0.00121832
6.98397e-19
0.00121832
8.999e-19
0.00121832
1.00337e-18
0.00121832
5.52382e-19
0.00121832
-5.1568e-19
0.00121832
-4.73227e-19
0.00121832
2.7996e-19
0.00121832
-9.50661e-19
0.00121832
-1.22003e-18
0.00121832
5.63668e-19
0.00121832
5.79816e-19
0.00121832
-4.05135e-19
0.00121832
-1.00968e-18
0.00121832
-7.11748e-19
0.00121832
-7.23223e-19
0.00121832
-6.51663e-19
0.00121832
-4.50015e-19
0.00121832
1.24641e-18
0.00121832
1.07929e-18
0.00121832
-1.83139e-19
0.00121832
-5.27873e-19
0.00121832
-2.05809e-19
0.00121832
1.16792e-18
0.00121832
4.38783e-19
0.00121832
-1.20472e-18
0.00121832
-6.06294e-19
0.00121832
8.72923e-19
0.00121832
6.95955e-19
0.00121832
-4.97319e-19
0.00121832
-5.23721e-19
0.00121832
3.31639e-19
0.00121832
6.40567e-19
0.00121832
-2.79723e-20
0.00121832
-1.4576e-19
0.00121832
-6.59436e-20
0.00121832
-9.34793e-19
0.00121832
-7.46565e-19
0.00121832
-2.31661e-19
0.00121832
-6.16622e-19
0.00121832
1.0791e-19
0.00121832
2.08361e-19
0.00121832
5.37163e-19
0.00121832
-4.79591e-19
0.00121832
-7.03054e-19
0.00121832
4.46206e-19
0.00121832
-1.77641e-20
0.00121832
8.72114e-20
0.00121832
1.29343e-18
0.00121832
1.06505e-18
0.00121832
-4.70197e-19
0.00121832
-1.41638e-18
0.00121832
1.06542e-18
0.00121832
1.53519e-18
0.00121832
-1.18302e-18
0.00121832
-3.37528e-20
0.00121832
2.23032e-18
0.00121832
-6.77394e-20
0.00121832
-1.59425e-18
0.00121832
-8.39609e-20
0.00121832
-2.61833e-19
0.00121832
5.25281e-19
0.00121832
9.05244e-19
0.00121832
-8.01919e-19
0.00121832
-1.72363e-19
0.00121832
-1.29581e-19
0.00121832
-1.33626e-18
0.00121832
-1.37233e-18
0.00121832
-4.45508e-19
0.00121832
1.1891e-18
0.00121832
4.88946e-19
0.00121832
-7.82272e-19
0.00121832
-5.66971e-19
0.00121832
-4.22805e-19
0.00121832
1.3004e-19
0.00121832
1.13323e-19
0.00121832
-2.19013e-20
0.00121832
-3.8096e-19
0.00121832
1.3434e-18
0.00121832
1.8278e-18
0.00121832
3.59404e-19
0.00121832
3.98934e-19
0.00121832
1.07982e-18
0.00121832
3.28377e-19
0.00121832
-8.03461e-19
0.00121832
8.21552e-20
0.00121832
1.08242e-18
0.00121832
-9.03769e-19
0.00121832
-7.18378e-19
0.00121832
1.19831e-18
0.00121832
-3.68429e-21
0.00121832
-1.11299e-18
0.00121832
-7.57875e-19
0.00121832
-5.19568e-19
0.00121832
1.18338e-18
0.00121832
5.53673e-19
0.00121832
-3.67368e-19
0.00121832
-3.51311e-20
0.00121832
1.19706e-18
0.00121832
-1.46069e-19
0.00121832
-1.05368e-18
0.00121832
-8.29534e-19
0.00121832
5.42085e-19
0.00121832
2.26909e-18
0.00121832
1.28789e-18
0.00121832
1.50732e-18
0.00121832
2.08764e-18
0.00121832
-7.06081e-19
0.00121832
-1.74403e-18
0.00121832
-7.27529e-20
0.00121832
2.55182e-20
0.00121832
-7.5209e-19
0.00121832
1.47623e-18
0.00121832
8.1176e-19
0.00121832
1.45122e-18
0.00121832
1.59675e-18
0.00121832
-2.06063e-18
0.00121832
-2.19655e-18
0.00121832
-3.83489e-19
0.00121832
2.18284e-19
0.00121832
3.41134e-19
0.00121832
2.84053e-19
0.00121832
-6.69875e-19
0.00121832
1.90305e-19
0.00121832
-1.17287e-18
0.00121832
-3.29368e-19
0.00121832
-9.11133e-19
0.00121832
1.36818e-19
0.00121832
2.28448e-18
0.00121832
1.33415e-18
0.00121832
-8.05847e-19
0.00121832
-1.31603e-18
0.00121832
-2.46031e-19
0.00121832
-7.63805e-19
0.00121832
3.43308e-20
0.00121832
-2.40578e-19
0.00121832
7.63275e-19
0.00121832
2.28536e-18
0.00121832
2.46167e-18
0.00121832
-3.3442e-19
0.00121832
-6.44162e-19
0.00121832
-6.59541e-19
0.00121832
-6.90068e-19
0.00121832
7.30695e-19
0.00121832
-1.15787e-19
0.00121832
1.10102e-18
0.00121832
1.81433e-18
0.00121832
4.19571e-19
0.00121832
1.87379e-20
0.00121832
-4.077e-20
0.00121832
-7.47492e-19
0.00121832
-6.70072e-19
0.00121832
-2.49014e-21
0.00121832
1.94543e-18
0.00121832
6.68449e-19
0.00121832
-5.73925e-19
0.00121832
4.08776e-19
0.00121832
-6.74241e-20
0.00121832
5.1034e-19
0.00121832
1.03033e-18
0.00121832
-6.6244e-20
0.00121832
2.14207e-19
0.00121832
1.72549e-18
0.00121832
2.80038e-19
0.00121832
-1.18843e-18
0.00121832
1.09701e-19
0.00121832
1.58404e-19
0.00121832
-5.99714e-19
0.00121832
-1.46517e-19
0.00121832
-6.16899e-19
0.00121832
1.79726e-18
0.00121832
3.00187e-18
0.00121832
-1.78019e-19
0.00121832
-4.49518e-20
0.00121832
-2.02703e-18
0.00121832
-2.09643e-18
0.00121832
2.79443e-18
0.00121832
1.48355e-19
0.00121832
2.91033e-19
0.00121832
3.859e-18
0.00121832
-1.22159e-18
0.00121832
-2.68179e-18
0.00121832
-3.82151e-19
0.00121832
-1.19886e-18
0.00121832
-3.29317e-19
0.00121832
6.25594e-19
0.00121832
5.04908e-19
0.00121832
1.60431e-18
0.00121832
1.64788e-18
0.00121832
1.12512e-19
0.00121832
-1.67647e-18
0.00121832
-2.50961e-18
0.00121832
6.23156e-19
0.00121832
2.04173e-18
0.00121832
-1.89334e-18
0.00121832
1.95099e-18
0.00121832
1.68453e-18
0.00121832
-2.5186e-18
0.00121832
2.46109e-18
0.00121832
1.03933e-18
0.00121832
-2.28292e-18
0.00121832
9.20051e-19
0.00121832
2.25833e-18
0.00121832
2.1708e-18
0.00121832
6.82763e-18
0.00121832
3.81651e-18
0.00121832
1.57808e-18
0.00121832
5.99997e-18
0.00121832
7.06873e-18
8.87793e-18
0.00168765
7.62641e-18
0.00168765
5.90201e-18
0.00168765
4.54094e-18
0.00168765
3.37036e-18
0.00168765
2.74885e-18
0.00168765
2.54565e-18
0.00168765
1.91923e-18
0.00168765
1.46263e-18
0.00168765
9.10341e-19
0.00168765
3.32555e-19
0.00168765
-3.4926e-19
0.00168765
-5.88767e-19
0.00168765
-5.97764e-19
0.00168765
-4.98723e-19
0.00168765
-8.65211e-19
0.00168765
-1.11251e-18
0.00168765
-5.28133e-19
0.00168765
-8.22146e-19
0.00168765
-3.79548e-19
0.00168765
3.88694e-21
0.00168765
3.14355e-19
0.00168765
-2.96307e-19
0.00168765
-3.25021e-20
0.00168765
-2.55001e-19
0.00168765
-1.98388e-19
0.00168765
-5.52175e-19
0.00168765
-7.13733e-19
0.00168765
-4.58593e-19
0.00168765
-8.05327e-19
0.00168765
-1.31656e-18
0.00168765
-6.44491e-19
0.00168765
2.00683e-19
0.00168765
1.6075e-19
0.00168765
5.32548e-19
0.00168765
3.77673e-19
0.00168765
2.08884e-19
0.00168765
-2.01636e-19
0.00168765
6.17561e-19
0.00168765
8.82212e-19
0.00168765
6.57851e-19
0.00168765
3.3461e-19
0.00168765
-2.99416e-20
0.00168765
-1.10718e-19
0.00168765
-1.37839e-19
0.00168765
-1.84937e-19
0.00168765
3.88484e-19
0.00168765
-1.48929e-19
0.00168765
-7.28789e-19
0.00168765
-5.51809e-19
0.00168765
-4.67567e-19
0.00168765
-9.48488e-19
0.00168765
-1.6194e-18
0.00168765
-1.82229e-18
0.00168765
-9.49733e-19
0.00168765
-7.41843e-19
0.00168765
-8.26729e-19
0.00168765
-2.46521e-19
0.00168765
-1.84755e-19
0.00168765
2.09059e-19
0.00168765
1.4308e-19
0.00168765
2.71199e-19
0.00168765
9.2178e-19
0.00168765
7.91438e-19
0.00168765
1.23348e-18
0.00168765
9.19697e-19
0.00168765
8.0521e-19
0.00168765
1.71215e-19
0.00168765
-5.0335e-19
0.00168765
2.69792e-19
0.00168765
1.07094e-19
0.00168765
-9.34185e-20
0.00168765
1.46654e-19
0.00168765
6.79317e-19
0.00168765
1.41436e-19
0.00168765
-3.00077e-19
0.00168765
1.81165e-18
0.00168765
1.57386e-18
0.00168765
6.36171e-19
0.00168765
6.44082e-19
0.00168765
2.10483e-18
0.00168765
2.82775e-18
0.00168765
1.83948e-18
0.00168765
1.91826e-18
0.00168765
1.83176e-18
0.00168765
1.15986e-18
0.00168765
1.39406e-18
0.00168765
1.09711e-18
0.00168765
1.52623e-18
0.00168765
1.14607e-18
0.00168765
1.65219e-18
0.00168765
2.35041e-18
0.00168765
1.46483e-18
0.00168765
1.08792e-18
0.00168765
9.97045e-19
0.00168765
6.53361e-19
0.00168765
6.1099e-20
0.00168765
2.12764e-19
0.00168765
1.96903e-19
0.00168765
-7.78898e-19
0.00168765
-1.209e-18
0.00168765
4.85098e-19
0.00168765
7.22035e-19
0.00168765
-1.77862e-19
0.00168765
-1.06085e-18
0.00168765
-1.14027e-18
0.00168765
-5.83058e-19
0.00168765
-8.18913e-19
0.00168765
-6.56651e-19
0.00168765
1.20291e-18
0.00168765
1.11532e-18
0.00168765
-3.84451e-19
0.00168765
-8.37916e-19
0.00168765
-1.68811e-20
0.00168765
1.25689e-18
0.00168765
6.32005e-19
0.00168765
-8.51805e-19
0.00168765
-5.85996e-19
0.00168765
6.66894e-19
0.00168765
7.28895e-19
0.00168765
-5.55469e-19
0.00168765
-4.15816e-19
0.00168765
-1.77521e-20
0.00168765
5.33141e-19
0.00168765
1.02391e-19
0.00168765
-1.18503e-20
0.00168765
-1.00624e-19
0.00168765
-5.4783e-19
0.00168765
-1.04294e-18
0.00168765
-6.91921e-19
0.00168765
-2.64395e-19
0.00168765
-1.44276e-19
0.00168765
-4.12953e-20
0.00168765
2.70211e-19
0.00168765
-1.52582e-19
0.00168765
-5.66102e-19
0.00168765
7.523e-19
0.00168765
-3.3078e-19
0.00168765
4.71237e-19
0.00168765
1.56859e-18
0.00168765
1.02482e-18
0.00168765
-3.17459e-19
0.00168765
-9.54334e-19
0.00168765
1.38685e-18
0.00168765
1.90913e-18
0.00168765
-1.10629e-18
0.00168765
-2.33593e-20
0.00168765
2.313e-18
0.00168765
-3.91676e-19
0.00168765
-1.43436e-18
0.00168765
-5.488e-20
0.00168765
-1.86389e-19
0.00168765
6.53727e-19
0.00168765
7.86975e-19
0.00168765
-8.2175e-19
0.00168765
-4.47055e-19
0.00168765
-3.22021e-19
0.00168765
-1.27402e-18
0.00168765
-1.57092e-18
0.00168765
-1.13548e-18
0.00168765
1.145e-18
0.00168765
6.83478e-19
0.00168765
-5.01548e-19
0.00168765
-5.7043e-19
0.00168765
-5.24775e-19
0.00168765
6.39424e-19
0.00168765
2.46086e-19
0.00168765
-3.16336e-19
0.00168765
-2.51706e-19
0.00168765
2.04727e-18
0.00168765
2.29217e-18
0.00168765
1.25922e-19
0.00168765
4.90476e-19
0.00168765
1.00744e-18
0.00168765
-1.83339e-19
0.00168765
-4.453e-19
0.00168765
9.27145e-19
0.00168765
8.51265e-19
0.00168765
-9.95035e-19
0.00168765
-1.12086e-18
0.00168765
1.2342e-18
0.00168765
2.97222e-19
0.00168765
-1.78552e-18
0.00168765
-7.82769e-19
0.00168765
-2.04019e-19
0.00168765
4.95473e-19
0.00168765
3.58712e-19
0.00168765
8.12958e-20
0.00168765
-2.52628e-19
0.00168765
7.50443e-19
0.00168765
7.97342e-19
0.00168765
-8.1404e-19
0.00168765
-1.13498e-19
0.00168765
1.06306e-18
0.00168765
2.53414e-18
0.00168765
1.79725e-18
0.00168765
1.72788e-18
0.00168765
2.37049e-18
0.00168765
-3.62531e-19
0.00168765
-1.79149e-18
0.00168765
-9.84155e-20
0.00168765
1.2848e-20
0.00168765
-6.44987e-19
0.00168765
1.5616e-18
0.00168765
1.10423e-18
0.00168765
2.02745e-18
0.00168765
1.74759e-18
0.00168765
-2.01308e-18
0.00168765
-2.33629e-18
0.00168765
-7.26014e-19
0.00168765
2.47261e-19
0.00168765
5.20779e-19
0.00168765
5.88742e-20
0.00168765
-4.19385e-19
0.00168765
-2.37461e-19
0.00168765
-2.06844e-18
0.00168765
1.3436e-19
0.00168765
-9.55013e-19
0.00168765
-3.05216e-19
0.00168765
2.89239e-18
0.00168765
1.36746e-18
0.00168765
-9.10484e-19
0.00168765
-1.00709e-18
0.00168765
-4.4517e-19
0.00168765
-4.20001e-19
0.00168765
-5.66644e-21
0.00168765
-3.49938e-20
0.00168765
1.36683e-18
0.00168765
1.92588e-18
0.00168765
2.59702e-18
0.00168765
-1.81747e-20
0.00168765
-2.71714e-19
0.00168765
-5.32775e-19
0.00168765
-5.80218e-19
0.00168765
5.81449e-19
0.00168765
2.69175e-19
0.00168765
1.77053e-18
0.00168765
2.03902e-18
0.00168765
3.13801e-20
0.00168765
-9.45333e-20
0.00168765
-5.97969e-19
0.00168765
-1.30407e-19
0.00168765
-1.35374e-19
0.00168765
-1.10945e-19
0.00168765
2.67986e-18
0.00168765
9.60647e-19
0.00168765
6.93827e-19
0.00168765
4.31019e-19
0.00168765
-3.42777e-19
0.00168765
9.47629e-19
0.00168765
1.73963e-18
0.00168765
2.82177e-19
0.00168765
1.76554e-19
0.00168765
6.94471e-19
0.00168765
2.31071e-20
0.00168765
-6.11034e-19
0.00168765
-4.62451e-19
0.00168765
4.69498e-19
0.00168765
-1.23548e-19
0.00168765
-3.08915e-19
0.00168765
-1.36539e-18
0.00168765
2.17543e-18
0.00168765
3.49677e-18
0.00168765
1.63178e-19
0.00168765
-1.49624e-19
0.00168765
-2.66801e-18
0.00168765
-2.25231e-18
0.00168765
3.15467e-18
0.00168765
1.25651e-18
0.00168765
8.92488e-20
0.00168765
3.70763e-18
0.00168765
-1.62172e-18
0.00168765
-3.20578e-18
0.00168765
1.99498e-19
0.00168765
-1.36077e-18
0.00168765
-1.27466e-18
0.00168765
2.28273e-18
0.00168765
1.23266e-18
0.00168765
5.38358e-19
0.00168765
1.61634e-18
0.00168765
-1.56858e-19
0.00168765
-2.46083e-18
0.00168765
-3.30451e-18
0.00168765
8.02108e-19
0.00168765
2.39977e-18
0.00168765
-2.43633e-18
0.00168765
1.85805e-18
0.00168765
1.95287e-18
0.00168765
-2.99247e-18
0.00168765
1.99894e-18
0.00168765
1.73686e-18
0.00168765
-2.95224e-18
0.00168765
5.34097e-19
0.00168765
3.48276e-18
0.00168765
2.19712e-18
0.00168765
6.82689e-18
0.00168765
4.35577e-18
0.00168765
1.14343e-18
0.00168765
6.22822e-18
0.00168765
6.48128e-18
6.56398e-18
0.00214698
4.92744e-18
0.00214698
4.31606e-18
0.00214698
2.83851e-18
0.00214698
2.42634e-18
0.00214698
2.47809e-18
0.00214698
1.79515e-18
0.00214698
1.53483e-18
0.00214698
1.17848e-18
0.00214698
4.7153e-19
0.00214698
-2.65119e-20
0.00214698
-5.6929e-19
0.00214698
-1.13341e-18
0.00214698
-1.63394e-18
0.00214698
-1.66858e-18
0.00214698
-1.52891e-18
0.00214698
-1.36798e-18
0.00214698
-1.30518e-18
0.00214698
-1.57997e-18
0.00214698
-1.31018e-18
0.00214698
-2.08811e-19
0.00214698