/*--------------------------------*- C++ -*----------------------------------*\
| =========                 |                                                 |
| \\      /  F ield         | OpenFOAM: The Open Source CFD Toolbox           |
|  \\    /   O peration     | Version:  2406                                  |
|   \\  /    A nd           | Website:  www.openfoam.com                      |
|    \\/     M anipulation  |                                                 |
\*---------------------------------------------------------------------------*/
FoamFile
{
    version     2.0;
    format      ascii;
    arch        "LSB;label=32;scalar=64";
    class       volVectorField;
    location    "12.99375";
    object      U;
}
// * * * * * * * * * * * * * * * * * * * * * * * * * * * * * * * * * * * * * //

dimensions      [0 1 -1 0 0 0 0];

internalField   nonuniform List<vector> 
30000
(
(0.249663 -7.35072e-15 0)
(0.249663 -3.054e-15 0)
(0.249663 -1.61081e-15 0)
(0.249663 -7.46365e-16 0)
(0.249663 -4.42951e-16 0)
(0.249663 -2.68177e-16 0)
(0.249663 -2.107e-16 0)
(0.249663 -1.49303e-16 0)
(0.249663 -1.10454e-16 0)
(0.249663 -3.60692e-17 0)
(0.249663 -4.54739e-17 0)
(0.249663 -6.83882e-17 0)
(0.249663 -6.89356e-17 0)
(0.249663 1.68772e-18 0)
(0.249663 -4.60004e-18 0)
(0.249663 -8.5503e-17 0)
(0.249663 -6.65712e-17 0)
(0.249663 8.52922e-19 0)
(0.249663 -3.92005e-17 0)
(0.249663 -2.85031e-18 0)
(0.249663 1.70263e-17 0)
(0.249663 -5.69806e-17 0)
(0.249663 -1.32252e-17 0)
(0.249663 -3.80446e-17 0)
(0.249663 -2.1218e-17 0)
(0.249663 -1.02689e-17 0)
(0.249663 1.78004e-17 0)
(0.249663 8.04158e-17 0)
(0.249663 -1.14819e-16 0)
(0.249663 -2.42042e-17 0)
(0.249663 7.22572e-17 0)
(0.249663 -1.42743e-16 0)
(0.249663 -6.44829e-18 0)
(0.249663 1.59141e-16 0)
(0.249663 -5.76714e-17 0)
(0.249663 1.38199e-17 0)
(0.249663 -2.92878e-17 0)
(0.249663 1.73122e-17 0)
(0.249663 2.43305e-17 0)
(0.249663 -9.25547e-17 0)
(0.249663 1.04588e-16 0)
(0.249663 -3.76371e-17 0)
(0.249663 1.42348e-16 0)
(0.249663 9.1947e-17 0)
(0.249663 -2.27612e-16 0)
(0.249663 -1.77911e-18 0)
(0.249663 1.55256e-16 0)
(0.249663 -1.01244e-16 0)
(0.249663 -7.37559e-17 0)
(0.249663 1.0055e-16 0)
(0.249663 4.61218e-17 0)
(0.249663 8.12413e-17 0)
(0.249663 -2.19321e-16 0)
(0.249663 -1.85125e-16 0)
(0.249663 1.14679e-16 0)
(0.249663 6.07308e-18 0)
(0.249663 1.58005e-16 0)
(0.249663 -1.71587e-16 0)
(0.249663 -1.77185e-16 0)
(0.249663 1.42912e-16 0)
(0.249663 1.42468e-16 0)
(0.249663 -9.47443e-17 0)
(0.249663 3.30126e-17 0)
(0.249663 1.55167e-16 0)
(0.249663 -2.6024e-16 0)
(0.249663 2.95614e-17 0)
(0.249663 1.74392e-16 0)
(0.249663 1.46154e-16 0)
(0.249663 5.42608e-17 0)
(0.249663 -1.91929e-16 0)
(0.249663 -2.2071e-16 0)
(0.249663 -2.399e-18 0)
(0.249663 3.27349e-16 0)
(0.249663 -1.81602e-16 0)
(0.249663 -2.73785e-16 0)
(0.249663 3.18936e-16 0)
(0.249663 4.32078e-17 0)
(0.249663 -3.07401e-16 0)
(0.249663 -6.1156e-17 0)
(0.249663 1.86556e-16 0)
(0.249663 3.9458e-17 0)
(0.249663 6.70935e-17 0)
(0.249663 1.24701e-16 0)
(0.249663 1.1952e-16 0)
(0.249663 -2.66105e-16 0)
(0.249663 2.47728e-16 0)
(0.249663 3.10021e-16 0)
(0.249663 -2.49213e-16 0)
(0.249663 -5.74161e-17 0)
(0.249663 -1.368e-16 0)
(0.249663 2.81261e-17 0)
(0.249663 2.86503e-16 0)
(0.249663 -4.37331e-17 0)
(0.249663 1.45287e-18 0)
(0.249663 6.72099e-17 0)
(0.249663 -4.90448e-16 0)
(0.249663 1.24884e-16 0)
(0.249663 3.61368e-16 0)
(0.249663 -2.15379e-16 0)
(0.249663 -1.28362e-16 0)
(0.249663 3.89187e-17 0)
(0.249663 2.69136e-16 0)
(0.249663 -2.85667e-16 0)
(0.249663 -2.53016e-16 0)
(0.249663 4.70733e-16 0)
(0.249663 -2.53884e-16 0)
(0.249663 -3.10171e-16 0)
(0.249663 1.73789e-16 0)
(0.249663 4.88959e-17 0)
(0.249663 3.45903e-16 0)
(0.249663 -2.93651e-16 0)
(0.249663 -3.51296e-16 0)
(0.249663 2.20277e-16 0)
(0.249663 1.37821e-16 0)
(0.249663 3.15928e-16 0)
(0.249663 -1.05456e-16 0)
(0.249663 -5.97506e-16 0)
(0.249663 3.48696e-17 0)
(0.249663 3.3755e-16 0)
(0.249663 1.84911e-17 0)
(0.249663 -8.63764e-17 0)
(0.249663 2.01794e-17 0)
(0.249663 3.68272e-16 0)
(0.249663 -1.83603e-17 0)
(0.249663 -5.72109e-16 0)
(0.249663 2.67382e-16 0)
(0.249663 2.65399e-16 0)
(0.249663 -3.27506e-16 0)
(0.249663 -4.55087e-17 0)
(0.249663 -5.33867e-17 0)
(0.249663 -3.54278e-16 0)
(0.249663 -4.90344e-17 0)
(0.249663 3.81422e-16 0)
(0.249663 -1.80119e-17 0)
(0.249663 -2.96684e-17 0)
(0.249663 7.16215e-17 0)
(0.249663 2.55398e-16 0)
(0.249663 -3.31458e-16 0)
(0.249663 8.2018e-17 0)
(0.249663 3.52688e-16 0)
(0.249663 -3.45326e-16 0)
(0.249663 -3.35231e-16 0)
(0.249663 3.43298e-17 0)
(0.249663 3.49177e-16 0)
(0.249663 -8.0699e-17 0)
(0.249663 -6.53521e-17 0)
(0.249663 4.30586e-16 0)
(0.249663 -2.36602e-16 0)
(0.249663 -3.85414e-16 0)
(0.249663 2.92584e-16 0)
(0.249663 -6.65037e-17 0)
(0.249663 3.19864e-17 0)
(0.249663 4.5742e-16 0)
(0.249663 -2.79494e-16 0)
(0.249663 -2.69385e-17 0)
(0.249663 2.41096e-16 0)
(0.249663 -6.38062e-16 0)
(0.249663 -2.67022e-16 0)
(0.249663 5.25568e-16 0)
(0.249663 6.04701e-16 0)
(0.249663 -4.55692e-16 0)
(0.249663 -1.47338e-16 0)
(0.249663 -3.69194e-17 0)
(0.249663 4.68756e-18 0)
(0.249663 -1.8155e-17 0)
(0.249663 -4.07055e-17 0)
(0.249663 -1.87863e-18 0)
(0.249663 -5.7947e-16 0)
(0.249663 8.72344e-16 0)
(0.249663 1.70465e-16 0)
(0.249663 -8.38169e-16 0)
(0.249663 7.76379e-16 0)
(0.249663 4.10927e-16 0)
(0.249663 -8.53407e-16 0)
(0.249663 1.26072e-16 0)
(0.249663 2.73584e-17 0)
(0.249663 5.01867e-17 0)
(0.249663 -2.03394e-17 0)
(0.249663 -8.04294e-17 0)
(0.249663 3.66749e-16 0)
(0.249663 -4.81731e-16 0)
(0.249663 -8.30322e-17 0)
(0.249663 1.68249e-16 0)
(0.249663 -2.69903e-16 0)
(0.249663 6.97003e-16 0)
(0.249663 7.03163e-17 0)
(0.249663 -5.64618e-16 0)
(0.249663 5.26021e-16 0)
(0.249663 6.31032e-17 0)
(0.249663 -2.88027e-16 0)
(0.249663 -1.18327e-16 0)
(0.249663 -1.27435e-16 0)
(0.249663 -5.41989e-16 0)
(0.249663 4.41921e-16 0)
(0.249663 5.91465e-16 0)
(0.249663 -2.41793e-16 0)
(0.249663 1.52512e-16 0)
(0.249663 4.91831e-16 0)
(0.249663 -7.00327e-16 0)
(0.249663 -5.65212e-16 0)
(0.249663 5.43326e-16 0)
(0.249663 -5.88341e-17 0)
(0.249663 9.23106e-17 0)
(0.249663 5.39526e-17 0)
(0.249663 4.96021e-16 0)
(0.249663 -4.56737e-16 0)
(0.249663 -6.93084e-16 0)
(0.249663 3.44539e-16 0)
(0.249663 6.79234e-17 0)
(0.249663 8.44931e-17 0)
(0.249663 6.11846e-16 0)
(0.249663 -4.78148e-16 0)
(0.249663 -5.98315e-16 0)
(0.249663 1.03577e-15 0)
(0.249663 -5.45951e-16 0)
(0.249663 -6.00357e-16 0)
(0.249663 3.78155e-16 0)
(0.249663 3.3238e-17 0)
(0.249663 1.82292e-16 0)
(0.249663 6.44778e-16 0)
(0.249663 -5.37177e-17 0)
(0.249663 -6.93671e-16 0)
(0.249663 -6.0637e-16 0)
(0.249663 -1.08775e-16 0)
(0.249663 4.97265e-16 0)
(0.249663 -3.9678e-16 0)
(0.249663 5.6485e-16 0)
(0.249663 6.88069e-16 0)
(0.249663 -3.10216e-16 0)
(0.249663 4.84576e-16 0)
(0.249663 -5.83212e-17 0)
(0.249663 -1.12591e-15 0)
(0.249663 4.24239e-16 0)
(0.249663 3.45935e-17 0)
(0.249663 -5.71978e-16 0)
(0.249663 5.58322e-16 0)
(0.249663 1.51196e-16 0)
(0.249663 5.25285e-16 0)
(0.249663 -5.70616e-16 0)
(0.249663 3.27327e-17 0)
(0.249663 -6.21319e-17 0)
(0.249663 -6.49956e-16 0)
(0.249663 5.58833e-16 0)
(0.249663 7.26203e-16 0)
(0.249663 -5.44418e-16 0)
(0.249663 -1.09537e-16 0)
(0.249663 5.44973e-16 0)
(0.249663 -5.35134e-16 0)
(0.249663 -8.35359e-17 0)
(0.249663 -5.13459e-16 0)
(0.249663 -7.55217e-17 0)
(0.249663 1.48343e-16 0)
(0.249663 1.26719e-15 0)
(0.249663 -1.25539e-17 0)
(0.249663 -6.11331e-16 0)
(0.249663 4.92422e-16 0)
(0.249663 -6.46795e-16 0)
(0.249663 -7.14182e-16 0)
(0.249663 5.15911e-16 0)
(0.249663 2.57748e-17 0)
(0.249663 1.51952e-16 0)
(0.249663 6.76285e-16 0)
(0.249663 -1.12481e-15 0)
(0.249663 4.55199e-16 0)
(0.249663 -5.96683e-17 0)
(0.249663 -1.31172e-16 0)
(0.249663 2.03129e-16 0)
(0.249663 -6.50437e-16 0)
(0.249663 4.874e-16 0)
(0.249663 1.48412e-15 0)
(0.249663 -1.16621e-15 0)
(0.249663 -8.71083e-16 0)
(0.249663 4.68895e-16 0)
(0.249663 -5.37913e-16 0)
(0.249663 1.03835e-15 0)
(0.249663 -1.15412e-15 0)
(0.249663 -1.21731e-16 0)
(0.249663 1.21256e-15 0)
(0.249663 1.36685e-16 0)
(0.249663 -5.88163e-16 0)
(0.249663 -1.41666e-16 0)
(0.249663 -8.02442e-17 0)
(0.249663 3.2319e-17 0)
(0.249663 1.84696e-17 0)
(0.249663 -6.32646e-16 0)
(0.249663 1.14977e-15 0)
(0.249663 -5.1928e-16 0)
(0.249663 -8.14251e-16 0)
(0.249663 6.64527e-16 0)
(0.249663 5.59467e-16 0)
(0.249663 -8.47892e-16 0)
(0.249663 -5.70635e-16 0)
(0.249663 4.62768e-16 0)
(0.249663 -7.38547e-17 0)
(0.249663 8.18048e-16 0)
(0.249663 3.5052e-16 0)
(0.249663 -2.27821e-15 0)
(0.249663 -7.48189e-16 0)
(0.249663 -1.02306e-15 0)
(0.249663 -3.56728e-15 0)
(0.73899 -1.26084e-14 0)
(0.73899 -6.91105e-15 0)
(0.73899 -3.96513e-15 0)
(0.73899 -2.30827e-15 0)
(0.73899 -1.31431e-15 0)
(0.73899 -7.16798e-16 0)
(0.73899 -5.3034e-16 0)
(0.73899 -3.61798e-16 0)
(0.73899 -3.22194e-16 0)
(0.73899 -2.44617e-16 0)
(0.73899 -2.32137e-16 0)
(0.73899 -2.17193e-16 0)
(0.73899 -1.80704e-16 0)
(0.73899 -2.47282e-16 0)
(0.73899 -3.52742e-16 0)
(0.73899 -2.93125e-16 0)
(0.73899 -3.55752e-16 0)
(0.73899 -1.94052e-16 0)
(0.73899 -7.66868e-17 0)
(0.73899 5.14839e-17 0)
(0.73899 -1.14756e-16 0)
(0.73899 -1.55777e-16 0)
(0.73899 3.3705e-17 0)
(0.73899 -7.34863e-17 0)
(0.73899 -5.22782e-17 0)
(0.73899 2.03902e-17 0)
(0.73899 1.07053e-17 0)
(0.73899 -9.42376e-17 0)
(0.73899 -4.40291e-16 0)
(0.73899 -1.7237e-16 0)
(0.73899 1.10474e-16 0)
(0.73899 -8.23482e-17 0)
(0.73899 6.20403e-17 0)
(0.73899 2.08063e-16 0)
(0.73899 -2.11019e-16 0)
(0.73899 -5.64266e-17 0)
(0.73899 6.08632e-17 0)
(0.73899 1.03277e-16 0)
(0.73899 1.69912e-16 0)
(0.73899 7.38846e-17 0)
(0.73899 4.38375e-16 0)
(0.73899 -1.36149e-16 0)
(0.73899 2.56877e-17 0)
(0.73899 2.90816e-16 0)
(0.73899 -2.54127e-16 0)
(0.73899 -1.97148e-17 0)
(0.73899 7.97056e-17 0)
(0.73899 -2.87152e-16 0)
(0.73899 2.0757e-17 0)
(0.73899 2.83716e-16 0)
(0.73899 -5.75424e-17 0)
(0.73899 -2.28681e-16 0)
(0.73899 -6.50078e-16 0)
(0.73899 -3.96755e-16 0)
(0.73899 1.40674e-16 0)
(0.73899 -1.77598e-16 0)
(0.73899 6.80264e-17 0)
(0.73899 -9.56282e-17 0)
(0.73899 -2.49395e-16 0)
(0.73899 1.49725e-16 0)
(0.73899 2.0743e-16 0)
(0.73899 -1.07586e-16 0)
(0.73899 1.02361e-16 0)
(0.73899 4.41262e-16 0)
(0.73899 5.82772e-17 0)
(0.73899 5.00382e-16 0)
(0.73899 -8.46283e-17 0)
(0.73899 -2.71595e-16 0)
(0.73899 4.89844e-16 0)
(0.73899 -3.3539e-16 0)
(0.73899 -4.46686e-16 0)
(0.73899 1.50318e-16 0)
(0.73899 4.85903e-16 0)
(0.73899 -3.03045e-16 0)
(0.73899 -4.81687e-16 0)
(0.73899 6.93181e-16 0)
(0.73899 1.13182e-16 0)
(0.73899 -6.13091e-16 0)
(0.73899 1.20251e-16 0)
(0.73899 6.727e-16 0)
(0.73899 3.30512e-16 0)
(0.73899 4.90854e-16 0)
(0.73899 9.68687e-16 0)
(0.73899 1.27314e-16 0)
(0.73899 -4.39926e-16 0)
(0.73899 9.82834e-16 0)
(0.73899 4.11038e-16 0)
(0.73899 -3.51335e-16 0)
(0.73899 1.95573e-16 0)
(0.73899 1.26386e-16 0)
(0.73899 5.77278e-17 0)
(0.73899 4.09285e-16 0)
(0.73899 4.76277e-16 0)
(0.73899 1.44909e-16 0)
(0.73899 -2.96653e-17 0)
(0.73899 -7.44997e-16 0)
(0.73899 -5.71032e-17 0)
(0.73899 5.40589e-16 0)
(0.73899 -4.29756e-16 0)
(0.73899 -4.70834e-16 0)
(0.73899 -1.51763e-17 0)
(0.73899 7.34672e-17 0)
(0.73899 -1.35624e-16 0)
(0.73899 5.61503e-17 0)
(0.73899 -1.94375e-16 0)
(0.73899 -8.33169e-16 0)
(0.73899 -3.84005e-16 0)
(0.73899 7.40474e-17 0)
(0.73899 2.14069e-16 0)
(0.73899 7.1325e-16 0)
(0.73899 -2.14235e-17 0)
(0.73899 -8.32761e-16 0)
(0.73899 -8.09465e-17 0)
(0.73899 9.53772e-16 0)
(0.73899 2.3764e-16 0)
(0.73899 -8.73929e-16 0)
(0.73899 -7.29551e-16 0)
(0.73899 3.47866e-16 0)
(0.73899 6.09723e-16 0)
(0.73899 5.51391e-17 0)
(0.73899 -1.58339e-16 0)
(0.73899 1.29761e-16 0)
(0.73899 6.78131e-16 0)
(0.73899 6.94251e-17 0)
(0.73899 -6.71431e-16 0)
(0.73899 2.06679e-16 0)
(0.73899 -7.14475e-17 0)
(0.73899 -7.16092e-16 0)
(0.73899 -1.86535e-16 0)
(0.73899 -2.16632e-16 0)
(0.73899 -4.73681e-16 0)
(0.73899 4.17474e-17 0)
(0.73899 1.1618e-15 0)
(0.73899 -7.00026e-16 0)
(0.73899 -7.77221e-16 0)
(0.73899 7.59191e-16 0)
(0.73899 3.887e-16 0)
(0.73899 -3.57723e-16 0)
(0.73899 6.38447e-16 0)
(0.73899 3.35724e-16 0)
(0.73899 -8.72212e-16 0)
(0.73899 -4.31044e-16 0)
(0.73899 2.73765e-16 0)
(0.73899 7.18845e-16 0)
(0.73899 -2.58565e-16 0)
(0.73899 -9.35642e-17 0)
(0.73899 1.01915e-15 0)
(0.73899 -2.09694e-16 0)
(0.73899 -7.50824e-16 0)
(0.73899 7.48238e-16 0)
(0.73899 -7.78432e-16 0)
(0.73899 -4.4381e-16 0)
(0.73899 1.60058e-15 0)
(0.73899 -5.93573e-16 0)
(0.73899 -4.20456e-16 0)
(0.73899 4.10821e-16 0)
(0.73899 -9.09971e-16 0)
(0.73899 7.0852e-17 0)
(0.73899 6.22205e-17 0)
(0.73899 3.63392e-16 0)
(0.73899 2.76131e-16 0)
(0.73899 -7.138e-16 0)
(0.73899 -5.13964e-16 0)
(0.73899 2.31033e-16 0)
(0.73899 -2.05314e-17 0)
(0.73899 4.52484e-17 0)
(0.73899 5.5195e-16 0)
(0.73899 -1.33137e-15 0)
(0.73899 6.23065e-16 0)
(0.73899 1.44385e-15 0)
(0.73899 -9.26642e-16 0)
(0.73899 6.61215e-16 0)
(0.73899 1.20731e-15 0)
(0.73899 -1.14951e-15 0)
(0.73899 -4.38919e-16 0)
(0.73899 3.49166e-16 0)
(0.73899 4.73235e-16 0)
(0.73899 6.36427e-17 0)
(0.73899 -5.11904e-16 0)
(0.73899 4.08922e-16 0)
(0.73899 -9.25783e-17 0)
(0.73899 -7.12806e-16 0)
(0.73899 -3.18838e-16 0)
(0.73899 -1.33084e-16 0)
(0.73899 1.21897e-15 0)
(0.73899 5.31875e-16 0)
(0.73899 -4.0879e-16 0)
(0.73899 2.82509e-16 0)
(0.73899 -1.04129e-16 0)
(0.73899 4.57241e-17 0)
(0.73899 -6.98658e-16 0)
(0.73899 -7.48398e-16 0)
(0.73899 -3.05379e-16 0)
(0.73899 1.05115e-15 0)
(0.73899 1.14873e-15 0)
(0.73899 2.20184e-16 0)
(0.73899 7.89957e-16 0)
(0.73899 3.67159e-16 0)
(0.73899 -1.35092e-15 0)
(0.73899 -8.31738e-16 0)
(0.73899 4.52232e-16 0)
(0.73899 -7.86449e-16 0)
(0.73899 9.88923e-16 0)
(0.73899 8.49196e-16 0)
(0.73899 -1.50563e-16 0)
(0.73899 3.56771e-16 0)
(0.73899 -7.50944e-16 0)
(0.73899 -6.99174e-16 0)
(0.73899 3.37592e-16 0)
(0.73899 -4.21469e-16 0)
(0.73899 1.85206e-16 0)
(0.73899 1.11844e-16 0)
(0.73899 -8.1663e-16 0)
(0.73899 6.17043e-16 0)
(0.73899 -1.54687e-16 0)
(0.73899 -2.26708e-16 0)
(0.73899 -3.7087e-16 0)
(0.73899 -4.8375e-17 0)
(0.73899 7.50759e-16 0)
(0.73899 1.10025e-15 0)
(0.73899 -2.3295e-16 0)
(0.73899 -1.09114e-15 0)
(0.73899 -3.99191e-16 0)
(0.73899 -9.08062e-16 0)
(0.73899 -1.25978e-16 0)
(0.73899 6.17529e-16 0)
(0.73899 4.33616e-16 0)
(0.73899 8.76685e-16 0)
(0.73899 1.41266e-15 0)
(0.73899 5.49591e-17 0)
(0.73899 -8.65202e-16 0)
(0.73899 -9.35598e-16 0)
(0.73899 3.38448e-16 0)
(0.73899 1.39091e-16 0)
(0.73899 -6.82795e-16 0)
(0.73899 8.62351e-16 0)
(0.73899 6.0453e-16 0)
(0.73899 6.31357e-16 0)
(0.73899 -6.86966e-16 0)
(0.73899 4.10199e-18 0)
(0.73899 -2.38097e-16 0)
(0.73899 -9.82382e-16 0)
(0.73899 7.03965e-16 0)
(0.73899 1.20068e-15 0)
(0.73899 -5.96738e-16 0)
(0.73899 -3.67156e-16 0)
(0.73899 6.30517e-16 0)
(0.73899 -6.06514e-16 0)
(0.73899 -5.40912e-17 0)
(0.73899 -4.64429e-16 0)
(0.73899 2.34106e-17 0)
(0.73899 9.01028e-16 0)
(0.73899 1.30216e-15 0)
(0.73899 -5.14459e-16 0)
(0.73899 -4.16303e-16 0)
(0.73899 5.60702e-16 0)
(0.73899 -8.7833e-16 0)
(0.73899 -1.1982e-15 0)
(0.73899 3.50847e-16 0)
(0.73899 -3.94169e-17 0)
(0.73899 6.89903e-16 0)
(0.73899 1.54877e-15 0)
(0.73899 -1.15727e-15 0)
(0.73899 3.87412e-16 0)
(0.73899 -4.96524e-16 0)
(0.73899 -3.28657e-16 0)
(0.73899 1.68081e-15 0)
(0.73899 -1.98467e-15 0)
(0.73899 -7.13908e-16 0)
(0.73899 3.60765e-15 0)
(0.73899 -1.20345e-15 0)
(0.73899 -1.75748e-15 0)
(0.73899 5.12881e-17 0)
(0.73899 -9.72112e-16 0)
(0.73899 9.81455e-16 0)
(0.73899 -1.30035e-15 0)
(0.73899 -1.13317e-16 0)
(0.73899 1.78869e-15 0)
(0.73899 1.05926e-15 0)
(0.73899 -1.36547e-15 0)
(0.73899 -1.35671e-15 0)
(0.73899 -1.22906e-16 0)
(0.73899 1.19787e-16 0)
(0.73899 2.64322e-16 0)
(0.73899 -1.10375e-15 0)
(0.73899 1.51657e-15 0)
(0.73899 -3.66677e-16 0)
(0.73899 -1.47513e-15 0)
(0.73899 7.98614e-16 0)
(0.73899 6.53106e-16 0)
(0.73899 -1.3526e-15 0)
(0.73899 1.3086e-16 0)
(0.73899 -7.21719e-16 0)
(0.73899 -1.1585e-15 0)
(0.73899 2.95307e-15 0)
(0.73899 7.01008e-16 0)
(0.73899 -3.47658e-15 0)
(0.73899 -1.43337e-15 0)
(0.73899 -3.70012e-15 0)
(0.73899 -8.31269e-15 0)
(1.21832 -7.96339e-15 0)
(1.21832 -6.64393e-15 0)
(1.21832 -4.92034e-15 0)
(1.21832 -3.40624e-15 0)
(1.21832 -2.20723e-15 0)
(1.21832 -1.31499e-15 0)
(1.21832 -1.0496e-15 0)
(1.21832 -7.01004e-16 0)
(1.21832 -6.66788e-16 0)
(1.21832 -7.481e-16 0)
(1.21832 -7.76546e-16 0)
(1.21832 -6.74938e-16 0)
(1.21832 -7.01622e-16 0)
(1.21832 -8.49121e-16 0)
(1.21832 -8.58498e-16 0)
(1.21832 -6.693e-16 0)
(1.21832 -6.82601e-16 0)
(1.21832 -6.13463e-16 0)
(1.21832 -9.93808e-17 0)
(1.21832 1.69717e-17 0)
(1.21832 -3.15196e-16 0)
(1.21832 -1.94555e-16 0)
(1.21832 -4.51283e-17 0)
(1.21832 -1.51157e-16 0)
(1.21832 -1.28411e-16 0)
(1.21832 -1.86135e-16 0)
(1.21832 -2.41196e-16 0)
(1.21832 -6.62315e-17 0)
(1.21832 -6.72441e-16 0)
(1.21832 -7.22543e-16 0)
(1.21832 -2.0161e-16 0)
(1.21832 3.01605e-16 0)
(1.21832 1.11872e-16 0)
(1.21832 -2.82569e-16 0)
(1.21832 -1.24701e-16 0)
(1.21832 2.42786e-16 0)
(1.21832 -9.64421e-17 0)
(1.21832 1.92596e-16 0)
(1.21832 5.06012e-16 0)
(1.21832 2.33321e-16 0)
(1.21832 4.012e-16 0)
(1.21832 1.94396e-16 0)
(1.21832 -1.00498e-16 0)
(1.21832 -1.42649e-16 0)
(1.21832 -1.60824e-16 0)
(1.21832 -2.01187e-16 0)
(1.21832 9.36734e-17 0)
(1.21832 -3.54627e-16 0)
(1.21832 1.27729e-18 0)
(1.21832 4.12227e-16 0)
(1.21832 -3.73078e-16 0)
(1.21832 -1.10478e-15 0)
(1.21832 -1.09715e-15 0)
(1.21832 -5.16553e-16 0)
(1.21832 -1.50759e-16 0)
(1.21832 -2.5051e-16 0)
(1.21832 3.6076e-16 0)
(1.21832 -2.50816e-16 0)
(1.21832 -4.00013e-16 0)
(1.21832 1.16782e-16 0)
(1.21832 9.56333e-17 0)
(1.21832 2.65629e-16 0)
(1.21832 6.97549e-17 0)
(1.21832 7.00598e-16 0)
(1.21832 1.00244e-15 0)
(1.21832 4.25998e-16 0)
(1.21832 -1.60507e-16 0)
(1.21832 -2.82794e-16 0)
(1.21832 -1.31005e-16 0)
(1.21832 -1.4388e-16 0)
(1.21832 1.6499e-17 0)
(1.21832 1.29206e-16 0)
(1.21832 3.88924e-16 0)
(1.21832 -2.87309e-16 0)
(1.21832 -5.25521e-16 0)
(1.21832 8.55156e-16 0)
(1.21832 7.84545e-16 0)
(1.21832 -1.90038e-16 0)
(1.21832 1.6206e-16 0)
(1.21832 6.97259e-16 0)
(1.21832 1.27609e-15 0)
(1.21832 1.23047e-15 0)
(1.21832 1.01899e-15 0)
(1.21832 7.76978e-16 0)
(1.21832 5.95498e-16 0)
(1.21832 6.82645e-16 0)
(1.21832 1.98507e-16 0)
(1.21832 7.23754e-16 0)
(1.21832 4.40099e-16 0)
(1.21832 2.69837e-16 0)
(1.21832 5.94959e-16 0)
(1.21832 7.60305e-16 0)
(1.21832 7.20003e-16 0)
(1.21832 9.07717e-16 0)
(1.21832 5.2411e-16 0)
(1.21832 -9.96515e-16 0)
(1.21832 -5.65345e-16 0)
(1.21832 8.39579e-16 0)
(1.21832 -5.99507e-16 0)
(1.21832 -1.25465e-15 0)
(1.21832 4.93378e-16 0)
(1.21832 2.38609e-16 0)
(1.21832 -6.08342e-16 0)
(1.21832 -9.64331e-16 0)
(1.21832 -6.77713e-16 0)
(1.21832 -3.9632e-16 0)
(1.21832 -5.76965e-16 0)
(1.21832 -5.79811e-16 0)
(1.21832 7.20151e-16 0)
(1.21832 1.00804e-15 0)
(1.21832 -1.62684e-16 0)
(1.21832 -4.24857e-16 0)
(1.21832 -3.18562e-16 0)
(1.21832 1.18103e-15 0)
(1.21832 5.91886e-16 0)
(1.21832 -1.77806e-15 0)
(1.21832 -5.4462e-16 0)
(1.21832 1.3412e-15 0)
(1.21832 7.14829e-16 0)
(1.21832 -3.27932e-16 0)
(1.21832 -4.73965e-16 0)
(1.21832 4.26331e-16 0)
(1.21832 7.62349e-16 0)
(1.21832 -1.49473e-16 0)
(1.21832 -2.61848e-16 0)
(1.21832 -3.61515e-17 0)
(1.21832 -1.25941e-15 0)
(1.21832 -7.46456e-16 0)
(1.21832 2.26491e-16 0)
(1.21832 -4.90754e-16 0)
(1.21832 1.34096e-16 0)
(1.21832 -8.96231e-17 0)
(1.21832 3.58716e-16 0)
(1.21832 -1.94056e-16 0)
(1.21832 -2.9207e-16 0)
(1.21832 3.36447e-16 0)
(1.21832 1.02205e-16 0)
(1.21832 -2.39997e-16 0)
(1.21832 7.44224e-16 0)
(1.21832 1.44837e-15 0)
(1.21832 -8.3858e-16 0)
(1.21832 -1.28926e-15 0)
(1.21832 1.0932e-15 0)
(1.21832 1.40229e-15 0)
(1.21832 -9.49701e-16 0)
(1.21832 -4.71377e-16 0)
(1.21832 2.05182e-15 0)
(1.21832 3.48966e-16 0)
(1.21832 -1.72319e-15 0)
(1.21832 -3.23239e-16 0)
(1.21832 -2.27217e-16 0)
(1.21832 6.25289e-16 0)
(1.21832 8.9739e-16 0)
(1.21832 -5.53888e-16 0)
(1.21832 -2.2376e-16 0)
(1.21832 -1.5012e-16 0)
(1.21832 -8.3872e-16 0)
(1.21832 -6.79495e-16 0)
(1.21832 -1.17902e-16 0)
(1.21832 8.04658e-16 0)
(1.21832 -3.72974e-16 0)
(1.21832 -8.04044e-16 0)
(1.21832 3.30415e-16 0)
(1.21832 -1.08362e-16 0)
(1.21832 -3.40507e-16 0)
(1.21832 -6.34144e-17 0)
(1.21832 -5.72609e-18 0)
(1.21832 -2.22829e-16 0)
(1.21832 8.28426e-16 0)
(1.21832 1.22828e-15 0)
(1.21832 5.19049e-16 0)
(1.21832 -1.6234e-16 0)
(1.21832 6.69821e-16 0)
(1.21832 7.68583e-16 0)
(1.21832 -1.11077e-15 0)
(1.21832 -2.06466e-16 0)
(1.21832 1.49932e-15 0)
(1.21832 -7.69975e-16 0)
(1.21832 -6.81448e-16 0)
(1.21832 1.32384e-15 0)
(1.21832 -4.36132e-16 0)
(1.21832 -8.40631e-16 0)
(1.21832 -8.6165e-16 0)
(1.21832 -7.02451e-16 0)
(1.21832 1.8548e-15 0)
(1.21832 9.09904e-16 0)
(1.21832 -8.95287e-16 0)
(1.21832 2.52467e-16 0)
(1.21832 9.72859e-16 0)
(1.21832 -5.41848e-16 0)
(1.21832 -8.14459e-16 0)
(1.21832 -9.60233e-16 0)
(1.21832 -3.277e-17 0)
(1.21832 2.09644e-15 0)
(1.21832 7.45138e-16 0)
(1.21832 1.39841e-15 0)
(1.21832 2.34294e-15 0)
(1.21832 -1.26339e-15 0)
(1.21832 -1.91599e-15 0)
(1.21832 5.40106e-17 0)
(1.21832 2.32174e-17 0)
(1.21832 -7.80637e-16 0)
(1.21832 1.72573e-15 0)
(1.21832 1.9195e-16 0)
(1.21832 8.56155e-16 0)
(1.21832 1.71851e-15 0)
(1.21832 -2.21113e-15 0)
(1.21832 -2.07515e-15 0)
(1.21832 -4.69697e-16 0)
(1.21832 6.43718e-16 0)
(1.21832 4.55165e-16 0)
(1.21832 6.31218e-16 0)
(1.21832 -1.01286e-15 0)
(1.21832 -1.4835e-16 0)
(1.21832 -5.85882e-16 0)
(1.21832 -4.40009e-16 0)
(1.21832 -1.14484e-15 0)
(1.21832 1.24156e-16 0)
(1.21832 2.39626e-15 0)
(1.21832 9.76618e-16 0)
(1.21832 -1.0293e-15 0)
(1.21832 -1.45945e-15 0)
(1.21832 8.32649e-17 0)
(1.21832 -8.59056e-16 0)
(1.21832 2.82804e-16 0)
(1.21832 -3.14714e-17 0)
(1.21832 1.9339e-16 0)
(1.21832 2.62062e-15 0)
(1.21832 2.22972e-15 0)
(1.21832 -8.3753e-16 0)
(1.21832 -5.99273e-16 0)
(1.21832 -6.77353e-16 0)
(1.21832 -1.35532e-15 0)
(1.21832 1.22327e-15 0)
(1.21832 1.66083e-16 0)
(1.21832 7.45501e-16 0)
(1.21832 1.47334e-15 0)
(1.21832 -1.20239e-16 0)
(1.21832 -9.11683e-17 0)
(1.21832 3.57481e-16 0)
(1.21832 -1.00364e-15 0)
(1.21832 -1.26938e-15 0)
(1.21832 -2.09076e-18 0)
(1.21832 1.6002e-15 0)
(1.21832 7.84665e-16 0)
(1.21832 -1.28902e-15 0)
(1.21832 5.61688e-16 0)
(1.21832 4.40494e-16 0)
(1.21832 -2.17559e-16 0)
(1.21832 3.75565e-16 0)
(1.21832 6.51853e-17 0)
(1.21832 -1.21359e-16 0)
(1.21832 2.05291e-15 0)
(1.21832 1.29085e-16 0)
(1.21832 -2.15108e-15 0)
(1.21832 7.35396e-16 0)
(1.21832 2.68987e-16 0)
(1.21832 -1.0893e-15 0)
(1.21832 -4.43845e-16 0)
(1.21832 -3.96622e-16 0)
(1.21832 1.12526e-15 0)
(1.21832 2.33403e-15 0)
(1.21832 2.00687e-16 0)
(1.21832 -2.88652e-16 0)
(1.21832 -2.44703e-15 0)
(1.21832 -1.64347e-15 0)
(1.21832 2.55023e-15 0)
(1.21832 -8.26927e-16 0)
(1.21832 3.86723e-16 0)
(1.21832 3.76449e-15 0)
(1.21832 -8.75003e-16 0)
(1.21832 -2.57832e-15 0)
(1.21832 -1.6372e-15 0)
(1.21832 -1.07829e-15 0)
(1.21832 5.45592e-16 0)
(1.21832 -1.09272e-15 0)
(1.21832 -3.67036e-16 0)
(1.21832 2.56038e-15 0)
(1.21832 1.09057e-15 0)
(1.21832 -3.17996e-16 0)
(1.21832 -1.50539e-15 0)
(1.21832 -2.66824e-15 0)
(1.21832 -3.33363e-16 0)
(1.21832 1.41366e-15 0)
(1.21832 -1.98186e-15 0)
(1.21832 1.03002e-15 0)
(1.21832 8.63879e-16 0)
(1.21832 -2.48573e-15 0)
(1.21832 1.13336e-15 0)
(1.21832 -5.359e-16 0)
(1.21832 -2.4246e-15 0)
(1.21832 -4.18181e-16 0)
(1.21832 -5.81314e-16 0)
(1.21832 1.54848e-16 0)
(1.21832 3.63151e-15 0)
(1.21832 -3.87574e-16 0)
(1.21832 -3.48645e-15 0)
(1.21832 -2.71986e-15 0)
(1.21832 -4.5734e-15 0)
(1.21832 -6.21656e-15 0)
(1.68765 -5.52423e-15 0)
(1.68765 -5.88013e-15 0)
(1.68765 -5.28085e-15 0)
(1.68765 -4.10881e-15 0)
(1.68765 -3.07177e-15 0)
(1.68765 -2.03043e-15 0)
(1.68765 -1.61086e-15 0)
(1.68765 -1.29278e-15 0)
(1.68765 -1.27831e-15 0)
(1.68765 -1.38351e-15 0)
(1.68765 -1.53626e-15 0)
(1.68765 -1.60008e-15 0)
(1.68765 -1.52073e-15 0)
(1.68765 -1.48052e-15 0)
(1.68765 -1.45639e-15 0)
(1.68765 -1.4647e-15 0)
(1.68765 -1.05144e-15 0)
(1.68765 -1.15627e-15 0)
(1.68765 -6.89328e-16 0)
(1.68765 -1.62754e-16 0)
(1.68765 -2.43063e-16 0)
(1.68765 -5.74173e-16 0)
(1.68765 -3.00357e-16 0)
(1.68765 -3.35559e-16 0)
(1.68765 -4.09816e-16 0)
(1.68765 -6.59106e-16 0)
(1.68765 -6.02582e-16 0)
(1.68765 -4.02753e-16 0)
(1.68765 -8.8084e-16 0)
(1.68765 -1.26385e-15 0)
(1.68765 -6.50816e-16 0)
(1.68765 1.39282e-16 0)
(1.68765 2.01459e-18 0)
(1.68765 6.00688e-17 0)
(1.68765 3.11833e-17 0)
(1.68765 2.19439e-16 0)
(1.68765 -2.47922e-16 0)
(1.68765 3.64043e-16 0)
(1.68765 7.32378e-16 0)
(1.68765 5.50254e-16 0)
(1.68765 4.24256e-16 0)
(1.68765 7.03225e-17 0)
(1.68765 -1.38991e-16 0)
(1.68765 -3.86797e-16 0)
(1.68765 -2.56362e-16 0)
(1.68765 9.35255e-17 0)
(1.68765 -2.43964e-16 0)
(1.68765 -5.31955e-16 0)
(1.68765 -4.43481e-16 0)
(1.68765 -3.1491e-16 0)
(1.68765 -5.15955e-16 0)
(1.68765 -1.2541e-15 0)
(1.68765 -1.79303e-15 0)
(1.68765 -9.97179e-16 0)
(1.68765 -4.06044e-16 0)
(1.68765 -4.8061e-16 0)
(1.68765 3.4683e-17 0)
(1.68765 -2.96916e-16 0)
(1.68765 -1.9979e-16 0)
(1.68765 2.88479e-17 0)
(1.68765 -4.52334e-17 0)
(1.68765 6.4095e-16 0)
(1.68765 6.5068e-16 0)
(1.68765 8.77547e-16 0)
(1.68765 9.64026e-16 0)
(1.68765 8.69073e-16 0)
(1.68765 -5.09777e-17 0)
(1.68765 -5.58335e-16 0)
(1.68765 1.48903e-16 0)
(1.68765 -8.98384e-18 0)
(1.68765 -2.52028e-16 0)
(1.68765 -2.53773e-18 0)
(1.68765 7.14685e-16 0)
(1.68765 -1.57451e-16 0)
(1.68765 -4.86298e-16 0)
(1.68765 1.48727e-15 0)
(1.68765 1.35089e-15 0)
(1.68765 2.33488e-16 0)
(1.68765 3.45925e-16 0)
(1.68765 1.66813e-15 0)
(1.68765 2.25196e-15 0)
(1.68765 1.40727e-15 0)
(1.68765 1.63989e-15 0)
(1.68765 1.42532e-15 0)
(1.68765 9.90474e-16 0)
(1.68765 1.102e-15 0)
(1.68765 7.43172e-16 0)
(1.68765 8.31745e-16 0)
(1.68765 6.86606e-16 0)
(1.68765 1.26944e-15 0)
(1.68765 1.88789e-15 0)
(1.68765 1.00926e-15 0)
(1.68765 1.04945e-15 0)
(1.68765 1.13846e-15 0)
(1.68765 5.09266e-16 0)
(1.68765 -2.81379e-16 0)
(1.68765 -6.08028e-17 0)
(1.68765 1.79191e-16 0)
(1.68765 -1.00845e-15 0)
(1.68765 -1.16344e-15 0)
(1.68765 3.85411e-16 0)
(1.68765 5.96611e-16 0)
(1.68765 -2.37637e-16 0)
(1.68765 -1.11828e-15 0)
(1.68765 -1.09511e-15 0)
(1.68765 -1.01122e-15 0)
(1.68765 -1.16517e-15 0)
(1.68765 -7.46767e-16 0)
(1.68765 1.33869e-15 0)
(1.68765 1.2599e-15 0)
(1.68765 -1.90405e-16 0)
(1.68765 -4.80664e-16 0)
(1.68765 -8.20217e-17 0)
(1.68765 1.02978e-15 0)
(1.68765 5.64727e-16 0)
(1.68765 -7.92076e-16 0)
(1.68765 -5.95377e-16 0)
(1.68765 6.2327e-16 0)
(1.68765 8.37762e-16 0)
(1.68765 -4.15933e-16 0)
(1.68765 -5.40653e-16 0)
(1.68765 4.64595e-17 0)
(1.68765 5.9197e-16 0)
(1.68765 2.67491e-17 0)
(1.68765 -2.2885e-16 0)
(1.68765 -3.53126e-16 0)
(1.68765 -7.98729e-16 0)
(1.68765 -8.56588e-16 0)
(1.68765 -5.48957e-16 0)
(1.68765 -4.13698e-16 0)
(1.68765 -1.05986e-16 0)
(1.68765 1.20449e-16 0)
(1.68765 5.00533e-16 0)
(1.68765 -3.15508e-16 0)
(1.68765 -5.8773e-16 0)
(1.68765 9.00098e-16 0)
(1.68765 -2.46419e-16 0)
(1.68765 4.05564e-16 0)
(1.68765 1.50917e-15 0)
(1.68765 7.84992e-16 0)
(1.68765 -2.33139e-16 0)
(1.68765 -1.06237e-15 0)
(1.68765 1.39477e-15 0)
(1.68765 1.94303e-15 0)
(1.68765 -1.28087e-15 0)
(1.68765 4.15524e-17 0)
(1.68765 2.4116e-15 0)
(1.68765 -5.38785e-16 0)
(1.68765 -1.68539e-15 0)
(1.68765 3.68303e-17 0)
(1.68765 -3.53592e-16 0)
(1.68765 6.61626e-16 0)
(1.68765 1.03545e-15 0)
(1.68765 -7.88004e-16 0)
(1.68765 -4.11316e-16 0)
(1.68765 -7.62465e-17 0)
(1.68765 -1.32978e-15 0)
(1.68765 -1.64759e-15 0)
(1.68765 -8.37237e-16 0)
(1.68765 1.53831e-15 0)
(1.68765 8.76548e-16 0)
(1.68765 -4.90213e-16 0)
(1.68765 -1.00917e-15 0)
(1.68765 -5.6388e-16 0)
(1.68765 3.93386e-16 0)
(1.68765 8.461e-17 0)
(1.68765 -2.67003e-16 0)
(1.68765 -6.40777e-16 0)
(1.68765 1.86354e-15 0)
(1.68765 2.21074e-15 0)
(1.68765 3.43911e-17 0)
(1.68765 3.11453e-16 0)
(1.68765 1.01714e-15 0)
(1.68765 -9.58979e-17 0)
(1.68765 -5.41063e-16 0)
(1.68765 4.22656e-16 0)
(1.68765 7.00414e-16 0)
(1.68765 -8.94695e-16 0)
(1.68765 -8.00812e-16 0)
(1.68765 1.36519e-15 0)
(1.68765 2.07089e-16 0)
(1.68765 -1.53183e-15 0)
(1.68765 -6.00507e-16 0)
(1.68765 -1.57173e-16 0)
(1.68765 6.20094e-16 0)
(1.68765 3.90616e-16 0)
(1.68765 1.74004e-16 0)
(1.68765 -2.54693e-16 0)
(1.68765 8.44798e-16 0)
(1.68765 2.22312e-16 0)
(1.68765 -1.2131e-15 0)
(1.68765 -6.60797e-16 0)
(1.68765 8.28294e-16 0)
(1.68765 2.36125e-15 0)
(1.68765 1.51101e-15 0)
(1.68765 1.53626e-15 0)
(1.68765 2.19111e-15 0)
(1.68765 -5.67054e-16 0)
(1.68765 -1.95795e-15 0)
(1.68765 1.17133e-17 0)
(1.68765 3.712e-17 0)
(1.68765 -7.0484e-16 0)
(1.68765 1.40328e-15 0)
(1.68765 1.08159e-15 0)
(1.68765 1.95918e-15 0)
(1.68765 1.58726e-15 0)
(1.68765 -2.25246e-15 0)
(1.68765 -2.37707e-15 0)
(1.68765 -4.67708e-16 0)
(1.68765 2.12594e-17 0)
(1.68765 2.02978e-16 0)
(1.68765 -4.57169e-17 0)
(1.68765 -5.32615e-16 0)
(1.68765 -2.96563e-17 0)
(1.68765 -2.1054e-15 0)
(1.68765 -1.70952e-16 0)
(1.68765 -1.01905e-15 0)
(1.68765 7.78722e-17 0)
(1.68765 2.7793e-15 0)
(1.68765 1.18837e-15 0)
(1.68765 -1.03713e-15 0)
(1.68765 -1.03054e-15 0)
(1.68765 -3.27291e-16 0)
(1.68765 -4.03527e-16 0)
(1.68765 -1.66418e-16 0)
(1.68765 -4.76431e-16 0)
(1.68765 1.3326e-15 0)
(1.68765 2.0545e-15 0)
(1.68765 2.56018e-15 0)
(1.68765 -5.07678e-17 0)
(1.68765 -4.61038e-16 0)
(1.68765 -6.27995e-16 0)
(1.68765 -5.54191e-16 0)
(1.68765 2.32084e-16 0)
(1.68765 -1.35652e-16 0)
(1.68765 1.52391e-15 0)
(1.68765 1.89585e-15 0)
(1.68765 2.19837e-17 0)
(1.68765 -1.47567e-16 0)
(1.68765 -4.34534e-16 0)
(1.68765 -5.30835e-16 0)
(1.68765 -5.45877e-16 0)
(1.68765 -3.86041e-16 0)
(1.68765 2.31833e-15 0)
(1.68765 5.50531e-16 0)
(1.68765 2.06528e-16 0)
(1.68765 7.09723e-17 0)
(1.68765 -6.79353e-16 0)
(1.68765 9.48156e-16 0)
(1.68765 1.60311e-15 0)
(1.68765 -9.03542e-17 0)
(1.68765 8.39566e-17 0)
(1.68765 7.4342e-16 0)
(1.68765 5.61714e-17 0)
(1.68765 -6.79112e-16 0)
(1.68765 -8.22417e-16 0)
(1.68765 1.22158e-16 0)
(1.68765 -4.8108e-16 0)
(1.68765 -5.58773e-16 0)
(1.68765 -1.44958e-15 0)
(1.68765 2.31304e-15 0)
(1.68765 3.24314e-15 0)
(1.68765 -4.0037e-16 0)
(1.68765 -6.42413e-17 0)
(1.68765 -2.40919e-15 0)
(1.68765 -2.52375e-15 0)
(1.68765 2.88029e-15 0)
(1.68765 8.39843e-16 0)
(1.68765 -2.18663e-16 0)
(1.68765 3.42589e-15 0)
(1.68765 -1.86367e-15 0)
(1.68765 -3.53462e-15 0)
(1.68765 1.4804e-16 0)
(1.68765 -1.8449e-15 0)
(1.68765 -1.90796e-15 0)
(1.68765 1.87835e-15 0)
(1.68765 7.53844e-16 0)
(1.68765 1.07413e-17 0)