/*--------------------------------*- C++ -*----------------------------------*\
| =========                 |                                                 |
| \\      /  F ield         | OpenFOAM: The Open Source CFD Toolbox           |
|  \\    /   O peration     | Version:  2406                                  |
|   \\  /    A nd           | Website:  www.openfoam.com                      |
|    \\/     M anipulation  |                                                 |
\*---------------------------------------------------------------------------*/
FoamFile
{
    version     2.0;
    format      ascii;
    arch        "LSB;label=32;scalar=64";
    class       volVectorField;
    location    "12.99375";
    object      U_0;
}
// * * * * * * * * * * * * * * * * * * * * * * * * * * * * * * * * * * * * * //

dimensions      [0 1 -1 0 0 0 0];

internalField   nonuniform List<vector> 
30000
(
(0.249663 2.04792e-14 0)
(0.249663 7.21807e-15 0)
(0.249663 3.08983e-15 0)
(0.249663 1.81698e-15 0)
(0.249663 1.06726e-15 0)
(0.249663 7.44646e-16 0)
(0.249663 5.0912e-16 0)
(0.249663 3.93363e-16 0)
(0.249663 2.8996e-16 0)
(0.249663 3.11975e-16 0)
(0.249663 2.02549e-16 0)
(0.249663 1.63195e-16 0)
(0.249663 1.3269e-16 0)
(0.249663 1.65466e-16 0)
(0.249663 1.16412e-16 0)
(0.249663 1.04053e-17 0)
(0.249663 3.80435e-17 0)
(0.249663 1.10811e-16 0)
(0.249663 5.16514e-17 0)
(0.249663 6.24859e-17 0)
(0.249663 8.16861e-17 0)
(0.249663 2.48694e-18 0)
(0.249663 4.80915e-17 0)
(0.249663 7.96385e-18 0)
(0.249663 1.99973e-17 0)
(0.249663 5.36634e-17 0)
(0.249663 2.2246e-17 0)
(0.249663 8.2253e-17 0)
(0.249663 -7.75502e-17 0)
(0.249663 -3.71421e-18 0)
(0.249663 6.28184e-17 0)
(0.249663 -1.24868e-16 0)
(0.249663 3.72029e-17 0)
(0.249663 1.97402e-16 0)
(0.249663 -4.52061e-17 0)
(0.249663 2.55412e-17 0)
(0.249663 -1.91061e-17 0)
(0.249663 2.64117e-17 0)
(0.249663 3.05582e-17 0)
(0.249663 -7.7987e-17 0)
(0.249663 1.05143e-16 0)
(0.249663 -4.6502e-17 0)
(0.249663 1.35617e-16 0)
(0.249663 1.22447e-16 0)
(0.249663 -1.92263e-16 0)
(0.249663 2.60651e-18 0)
(0.249663 1.54654e-16 0)
(0.249663 -7.25109e-17 0)
(0.249663 -5.33821e-17 0)
(0.249663 1.07116e-16 0)
(0.249663 7.1007e-17 0)
(0.249663 1.03794e-16 0)
(0.249663 -2.04274e-16 0)
(0.249663 -1.519e-16 0)
(0.249663 1.5969e-16 0)
(0.249663 2.82404e-17 0)
(0.249663 1.58233e-16 0)
(0.249663 -1.55745e-16 0)
(0.249663 -1.92741e-16 0)
(0.249663 1.36878e-16 0)
(0.249663 1.35758e-16 0)
(0.249663 -8.37901e-17 0)
(0.249663 3.94422e-17 0)
(0.249663 1.53002e-16 0)
(0.249663 -2.21942e-16 0)
(0.249663 6.13244e-17 0)
(0.249663 1.65328e-16 0)
(0.249663 1.48941e-16 0)
(0.249663 4.46105e-17 0)
(0.249663 -1.96557e-16 0)
(0.249663 -1.94057e-16 0)
(0.249663 1.95843e-18 0)
(0.249663 3.29221e-16 0)
(0.249663 -1.69853e-16 0)
(0.249663 -2.56138e-16 0)
(0.249663 3.23985e-16 0)
(0.249663 6.75568e-17 0)
(0.249663 -2.97802e-16 0)
(0.249663 -4.94257e-17 0)
(0.249663 1.992e-16 0)
(0.249663 1.00549e-16 0)
(0.249663 7.97429e-17 0)
(0.249663 1.2515e-16 0)
(0.249663 1.43637e-16 0)
(0.249663 -2.88521e-16 0)
(0.249663 2.36678e-16 0)
(0.249663 3.46675e-16 0)
(0.249663 -2.57359e-16 0)
(0.249663 -5.10567e-17 0)
(0.249663 -1.30292e-16 0)
(0.249663 -7.75578e-18 0)
(0.249663 2.67655e-16 0)
(0.249663 -3.3939e-17 0)
(0.249663 1.83545e-17 0)
(0.249663 7.77334e-17 0)
(0.249663 -5.19341e-16 0)
(0.249663 8.54597e-17 0)
(0.249663 3.40054e-16 0)
(0.249663 -2.09295e-16 0)
(0.249663 -1.18512e-16 0)
(0.249663 4.9663e-18 0)
(0.249663 2.86462e-16 0)
(0.249663 -2.59525e-16 0)
(0.249663 -2.59291e-16 0)
(0.249663 4.98758e-16 0)
(0.249663 -2.13406e-16 0)
(0.249663 -3.09795e-16 0)
(0.249663 1.87248e-16 0)
(0.249663 5.10387e-17 0)
(0.249663 3.4712e-16 0)
(0.249663 -2.84893e-16 0)
(0.249663 -3.50642e-16 0)
(0.249663 2.32662e-16 0)
(0.249663 1.17672e-16 0)
(0.249663 3.07478e-16 0)
(0.249663 -8.31906e-17 0)
(0.249663 -5.85615e-16 0)
(0.249663 2.47794e-17 0)
(0.249663 3.06597e-16 0)
(0.249663 2.34306e-17 0)
(0.249663 -6.29501e-17 0)
(0.249663 1.83675e-17 0)
(0.249663 3.78609e-16 0)
(0.249663 4.28311e-18 0)
(0.249663 -5.85492e-16 0)
(0.249663 2.5969e-16 0)
(0.249663 2.52175e-16 0)
(0.249663 -3.29241e-16 0)
(0.249663 -2.74565e-17 0)
(0.249663 -5.48341e-17 0)
(0.249663 -3.38279e-16 0)
(0.249663 -5.08833e-17 0)
(0.249663 3.7777e-16 0)
(0.249663 2.04561e-18 0)
(0.249663 -3.96557e-17 0)
(0.249663 5.67064e-17 0)
(0.249663 2.29406e-16 0)
(0.249663 -3.21019e-16 0)
(0.249663 1.00424e-16 0)
(0.249663 3.71456e-16 0)
(0.249663 -3.53858e-16 0)
(0.249663 -3.38399e-16 0)
(0.249663 3.74456e-17 0)
(0.249663 3.28175e-16 0)
(0.249663 -8.0736e-17 0)
(0.249663 -5.97095e-17 0)
(0.249663 4.12583e-16 0)
(0.249663 -2.67961e-16 0)
(0.249663 -3.87031e-16 0)
(0.249663 3.14574e-16 0)
(0.249663 -2.11753e-17 0)
(0.249663 6.00124e-17 0)
(0.249663 4.50345e-16 0)
(0.249663 -2.7286e-16 0)
(0.249663 -3.468e-17 0)
(0.249663 2.44584e-16 0)
(0.249663 -6.50751e-16 0)
(0.249663 -2.61921e-16 0)
(0.249663 5.54444e-16 0)
(0.249663 6.12617e-16 0)
(0.249663 -4.62861e-16 0)
(0.249663 -1.18141e-16 0)
(0.249663 -3.45659e-17 0)
(0.249663 2.04728e-17 0)
(0.249663 -1.33369e-17 0)
(0.249663 -1.63673e-17 0)
(0.249663 1.18638e-17 0)
(0.249663 -5.95587e-16 0)
(0.249663 8.71364e-16 0)
(0.249663 1.72102e-16 0)
(0.249663 -8.63087e-16 0)
(0.249663 7.59118e-16 0)
(0.249663 3.98458e-16 0)
(0.249663 -8.48694e-16 0)
(0.249663 1.41168e-16 0)
(0.249663 6.58949e-17 0)
(0.249663 3.85415e-17 0)
(0.249663 -5.81162e-18 0)
(0.249663 -3.94798e-17 0)
(0.249663 3.82502e-16 0)
(0.249663 -4.99319e-16 0)
(0.249663 -8.96026e-17 0)
(0.249663 1.73811e-16 0)
(0.249663 -2.64265e-16 0)
(0.249663 6.97911e-16 0)
(0.249663 6.87129e-17 0)
(0.249663 -5.83862e-16 0)
(0.249663 5.23067e-16 0)
(0.249663 4.7839e-17 0)
(0.249663 -2.7823e-16 0)
(0.249663 -8.41472e-17 0)
(0.249663 -1.28164e-16 0)
(0.249663 -5.3629e-16 0)
(0.249663 4.45828e-16 0)
(0.249663 6.00991e-16 0)
(0.249663 -2.38588e-16 0)
(0.249663 1.77671e-16 0)
(0.249663 5.06268e-16 0)
(0.249663 -7.12222e-16 0)
(0.249663 -5.65328e-16 0)
(0.249663 5.36971e-16 0)
(0.249663 -6.7147e-17 0)
(0.249663 8.36992e-17 0)
(0.249663 4.82474e-17 0)
(0.249663 5.12051e-16 0)
(0.249663 -4.10233e-16 0)
(0.249663 -6.85709e-16 0)
(0.249663 3.18015e-16 0)
(0.249663 4.24861e-17 0)
(0.249663 6.53853e-17 0)
(0.249663 6.052e-16 0)
(0.249663 -4.6808e-16 0)
(0.249663 -5.93693e-16 0)
(0.249663 1.05673e-15 0)
(0.249663 -5.45925e-16 0)
(0.249663 -5.90745e-16 0)
(0.249663 3.61152e-16 0)
(0.249663 4.91205e-17 0)
(0.249663 1.97262e-16 0)
(0.249663 6.34115e-16 0)
(0.249663 -3.67951e-17 0)
(0.249663 -6.95112e-16 0)
(0.249663 -5.88355e-16 0)
(0.249663 -9.86491e-17 0)
(0.249663 4.89456e-16 0)
(0.249663 -4.19992e-16 0)
(0.249663 5.3398e-16 0)
(0.249663 6.55083e-16 0)
(0.249663 -2.85656e-16 0)
(0.249663 5.14432e-16 0)
(0.249663 -3.52447e-17 0)
(0.249663 -1.13255e-15 0)
(0.249663 4.224e-16 0)
(0.249663 4.53971e-17 0)
(0.249663 -5.80429e-16 0)
(0.249663 5.78597e-16 0)
(0.249663 1.84786e-16 0)
(0.249663 5.22733e-16 0)
(0.249663 -5.48816e-16 0)
(0.249663 5.41242e-17 0)
(0.249663 -4.57211e-17 0)
(0.249663 -6.49196e-16 0)
(0.249663 6.06563e-16 0)
(0.249663 7.4319e-16 0)
(0.249663 -5.44726e-16 0)
(0.249663 -8.88206e-17 0)
(0.249663 5.61766e-16 0)
(0.249663 -5.25688e-16 0)
(0.249663 -7.56441e-17 0)
(0.249663 -4.90858e-16 0)
(0.249663 -4.04609e-17 0)
(0.249663 1.44188e-16 0)
(0.249663 1.27487e-15 0)
(0.249663 1.37534e-18 0)
(0.249663 -6.04898e-16 0)
(0.249663 5.28263e-16 0)
(0.249663 -6.07611e-16 0)
(0.249663 -6.7379e-16 0)
(0.249663 5.17733e-16 0)
(0.249663 3.46991e-17 0)
(0.249663 1.79011e-16 0)
(0.249663 6.7979e-16 0)
(0.249663 -1.11339e-15 0)
(0.249663 4.80337e-16 0)
(0.249663 -7.82018e-17 0)
(0.249663 -9.10161e-17 0)
(0.249663 2.62266e-16 0)
(0.249663 -6.42096e-16 0)
(0.249663 5.12228e-16 0)
(0.249663 1.49034e-15 0)
(0.249663 -1.14627e-15 0)
(0.249663 -7.88402e-16 0)
(0.249663 5.36319e-16 0)
(0.249663 -4.9788e-16 0)
(0.249663 1.0833e-15 0)
(0.249663 -1.11598e-15 0)
(0.249663 -6.71808e-17 0)
(0.249663 1.2946e-15 0)
(0.249663 1.85069e-16 0)
(0.249663 -5.48515e-16 0)
(0.249663 -8.91493e-17 0)
(0.249663 -2.05761e-19 0)
(0.249663 1.14165e-16 0)
(0.249663 8.89347e-17 0)
(0.249663 -5.32672e-16 0)
(0.249663 1.27574e-15 0)
(0.249663 -3.49542e-16 0)
(0.249663 -6.46462e-16 0)
(0.249663 8.33895e-16 0)
(0.249663 7.81117e-16 0)
(0.249663 -6.02192e-16 0)
(0.249663 -2.69005e-16 0)
(0.249663 8.69979e-16 0)
(0.249663 4.36262e-16 0)
(0.249663 1.52819e-15 0)
(0.249663 1.36322e-15 0)
(0.249663 -7.5198e-16 0)
(0.249663 1.77428e-15 0)
(0.249663 3.68962e-15 0)
(0.249663 6.73173e-15 0)
(0.738989 2.94548e-14 0)
(0.738989 1.28533e-14 0)
(0.738989 6.71858e-15 0)
(0.738989 4.0173e-15 0)
(0.738989 2.68008e-15 0)
(0.738989 2.00493e-15 0)
(0.738989 1.4999e-15 0)
(0.738989 1.19759e-15 0)
(0.738989 8.64724e-16 0)
(0.738989 7.16526e-16 0)
(0.738989 5.77888e-16 0)
(0.738989 4.44595e-16 0)
(0.738989 3.75081e-16 0)
(0.738989 1.89256e-16 0)
(0.738989 4.02154e-17 0)
(0.738989 3.18193e-17 0)
(0.738989 -6.1174e-17 0)
(0.738989 6.5675e-17 0)
(0.738989 1.71874e-16 0)
(0.738989 2.53227e-16 0)
(0.738989 7.40067e-17 0)
(0.738989 1.09519e-17 0)
(0.738989 1.93307e-16 0)
(0.738989 6.37925e-17 0)
(0.738989 1.09271e-16 0)
(0.738989 1.44778e-16 0)
(0.738989 2.89483e-17 0)
(0.738989 -6.22171e-17 0)
(0.738989 -3.42545e-16 0)
(0.738989 -1.34586e-16 0)
(0.738989 7.09889e-17 0)
(0.738989 7.82809e-19 0)
(0.738989 1.5005e-16 0)
(0.738989 3.11685e-16 0)
(0.738989 -1.51253e-16 0)
(0.738989 -3.84438e-17 0)
(0.738989 6.86814e-17 0)
(0.738989 8.3705e-17 0)
(0.738989 1.80998e-16 0)
(0.738989 7.06125e-17 0)
(0.738989 4.31824e-16 0)
(0.738989 -6.42528e-17 0)
(0.738989 7.18922e-17 0)
(0.738989 3.04772e-16 0)
(0.738989 -1.73364e-16 0)
(0.738989 4.37217e-17 0)
(0.738989 1.45669e-16 0)
(0.738989 -2.51839e-16 0)
(0.738989 6.57807e-17 0)
(0.738989 3.19795e-16 0)
(0.738989 3.60909e-18 0)
(0.738989 -1.83449e-16 0)
(0.738989 -5.63325e-16 0)
(0.738989 -2.8726e-16 0)
(0.738989 1.96159e-16 0)
(0.738989 -1.60809e-16 0)
(0.738989 8.84108e-17 0)
(0.738989 -8.34125e-17 0)
(0.738989 -2.43315e-16 0)
(0.738989 9.23315e-17 0)
(0.738989 1.83046e-16 0)
(0.738989 -9.17326e-17 0)
(0.738989 1.06407e-16 0)
(0.738989 4.52397e-16 0)
(0.738989 9.55625e-17 0)
(0.738989 5.73199e-16 0)
(0.738989 -6.11066e-17 0)
(0.738989 -2.73513e-16 0)
(0.738989 5.04555e-16 0)
(0.738989 -3.38287e-16 0)
(0.738989 -4.29925e-16 0)
(0.738989 1.58561e-16 0)
(0.738989 4.62644e-16 0)
(0.738989 -2.85711e-16 0)
(0.738989 -4.06836e-16 0)
(0.738989 7.18298e-16 0)
(0.738989 1.48729e-16 0)
(0.738989 -5.16671e-16 0)
(0.738989 1.89394e-16 0)
(0.738989 7.09278e-16 0)
(0.738989 4.22199e-16 0)
(0.738989 5.35812e-16 0)
(0.738989 9.80268e-16 0)
(0.738989 1.21326e-16 0)
(0.738989 -4.30938e-16 0)
(0.738989 9.85039e-16 0)
(0.738989 4.70801e-16 0)
(0.738989 -3.05164e-16 0)
(0.738989 2.31484e-16 0)
(0.738989 1.32891e-16 0)
(0.738989 -2.6932e-17 0)
(0.738989 3.11522e-16 0)
(0.738989 4.09158e-16 0)
(0.738989 1.50151e-16 0)
(0.738989 -4.46805e-17 0)
(0.738989 -8.23558e-16 0)
(0.738989 -1.02664e-16 0)
(0.738989 5.19794e-16 0)
(0.738989 -4.46582e-16 0)
(0.738989 -4.34845e-16 0)
(0.738989 -3.93109e-17 0)
(0.738989 8.38185e-17 0)
(0.738989 -8.26357e-17 0)
(0.738989 6.15687e-17 0)
(0.738989 -1.28509e-16 0)
(0.738989 -7.0491e-16 0)
(0.738989 -3.19862e-16 0)
(0.738989 1.56491e-16 0)
(0.738989 2.61762e-16 0)
(0.738989 6.9125e-16 0)
(0.738989 -2.67439e-17 0)
(0.738989 -8.25598e-16 0)
(0.738989 -1.22312e-16 0)
(0.738989 9.01674e-16 0)
(0.738989 2.60301e-16 0)
(0.738989 -7.94813e-16 0)
(0.738989 -6.76206e-16 0)
(0.738989 2.88856e-16 0)
(0.738989 5.68602e-16 0)
(0.738989 4.47729e-17 0)
(0.738989 -1.96532e-16 0)
(0.738989 1.04967e-16 0)
(0.738989 7.21686e-16 0)
(0.738989 1.23251e-16 0)
(0.738989 -6.65312e-16 0)
(0.738989 1.88659e-16 0)
(0.738989 -5.41308e-17 0)
(0.738989 -7.02345e-16 0)
(0.738989 -1.78636e-16 0)
(0.738989 -1.8888e-16 0)
(0.738989 -4.74104e-16 0)
(0.738989 1.36163e-17 0)
(0.738989 1.16532e-15 0)
(0.738989 -6.89611e-16 0)
(0.738989 -7.69471e-16 0)
(0.738989 7.30182e-16 0)
(0.738989 3.43718e-16 0)
(0.738989 -3.77352e-16 0)
(0.738989 7.06791e-16 0)
(0.738989 3.99714e-16 0)
(0.738989 -9.01255e-16 0)
(0.738989 -4.48273e-16 0)
(0.738989 2.25941e-16 0)
(0.738989 6.94513e-16 0)
(0.738989 -2.85854e-16 0)
(0.738989 -8.7667e-17 0)
(0.738989 9.32866e-16 0)
(0.738989 -2.51792e-16 0)
(0.738989 -7.02788e-16 0)
(0.738989 7.86059e-16 0)
(0.738989 -7.39475e-16 0)
(0.738989 -3.67789e-16 0)
(0.738989 1.60178e-15 0)
(0.738989 -5.91571e-16 0)
(0.738989 -4.66937e-16 0)
(0.738989 3.89573e-16 0)
(0.738989 -9.1659e-16 0)
(0.738989 3.14172e-17 0)
(0.738989 5.40752e-17 0)
(0.738989 3.81548e-16 0)
(0.738989 3.01653e-16 0)
(0.738989 -6.13179e-16 0)
(0.738989 -4.69308e-16 0)
(0.738989 2.701e-16 0)
(0.738989 4.97007e-17 0)
(0.738989 1.14756e-16 0)
(0.738989 5.76116e-16 0)
(0.738989 -1.33545e-15 0)
(0.738989 6.527e-16 0)
(0.738989 1.43819e-15 0)
(0.738989 -1.00181e-15 0)
(0.738989 6.25851e-16 0)
(0.738989 1.22024e-15 0)
(0.738989 -1.17387e-15 0)
(0.738989 -4.28897e-16 0)
(0.738989 3.86124e-16 0)
(0.738989 5.02504e-16 0)
(0.738989 1.21047e-16 0)
(0.738989 -4.20038e-16 0)
(0.738989 4.81848e-16 0)
(0.738989 -1.01988e-16 0)
(0.738989 -7.66287e-16 0)
(0.738989 -3.60552e-16 0)
(0.738989 -1.4177e-16 0)
(0.738989 1.21382e-15 0)
(0.738989 5.41821e-16 0)
(0.738989 -4.41741e-16 0)
(0.738989 2.72146e-16 0)
(0.738989 -8.18345e-17 0)
(0.738989 5.19356e-17 0)
(0.738989 -6.14049e-16 0)
(0.738989 -6.93067e-16 0)
(0.738989 -2.66694e-16 0)
(0.738989 1.11463e-15 0)
(0.738989 1.16018e-15 0)
(0.738989 2.0814e-16 0)
(0.738989 7.71395e-16 0)
(0.738989 3.88232e-16 0)
(0.738989 -1.33857e-15 0)
(0.738989 -7.95499e-16 0)
(0.738989 4.639e-16 0)
(0.738989 -7.64535e-16 0)
(0.738989 1.05079e-15 0)
(0.738989 9.08386e-16 0)
(0.738989 -1.16978e-16 0)
(0.738989 4.07475e-16 0)
(0.738989 -7.21065e-16 0)
(0.738989 -7.2784e-16 0)
(0.738989 3.27113e-16 0)
(0.738989 -4.70349e-16 0)
(0.738989 1.55056e-16 0)
(0.738989 1.33819e-16 0)
(0.738989 -7.72552e-16 0)
(0.738989 6.70947e-16 0)
(0.738989 -9.50698e-17 0)
(0.738989 -1.64122e-16 0)
(0.738989 -3.92429e-16 0)
(0.738989 -1.44611e-17 0)
(0.738989 7.58438e-16 0)
(0.738989 1.0726e-15 0)
(0.738989 -1.98605e-16 0)
(0.738989 -1.07143e-15 0)
(0.738989 -3.41208e-16 0)
(0.738989 -9.18872e-16 0)
(0.738989 -1.78114e-16 0)
(0.738989 5.61247e-16 0)
(0.738989 3.79762e-16 0)
(0.738989 8.8567e-16 0)
(0.738989 1.42079e-15 0)
(0.738989 1.51032e-16 0)
(0.738989 -8.08196e-16 0)
(0.738989 -9.37522e-16 0)
(0.738989 3.72713e-16 0)
(0.738989 1.34018e-16 0)
(0.738989 -7.1179e-16 0)
(0.738989 8.53188e-16 0)
(0.738989 6.12812e-16 0)
(0.738989 7.32104e-16 0)
(0.738989 -5.58169e-16 0)
(0.738989 3.5192e-17 0)
(0.738989 -2.0463e-16 0)
(0.738989 -9.37122e-16 0)
(0.738989 7.53051e-16 0)
(0.738989 1.27755e-15 0)
(0.738989 -4.93426e-16 0)
(0.738989 -2.73999e-16 0)
(0.738989 6.98304e-16 0)
(0.738989 -5.82204e-16 0)
(0.738989 7.68722e-18 0)
(0.738989 -3.99672e-16 0)
(0.738989 9.19672e-17 0)
(0.738989 9.1919e-16 0)
(0.738989 1.34202e-15 0)
(0.738989 -4.49312e-16 0)
(0.738989 -3.57228e-16 0)
(0.738989 6.44278e-16 0)
(0.738989 -7.68947e-16 0)
(0.738989 -1.10904e-15 0)
(0.738989 4.21963e-16 0)
(0.738989 1.49839e-17 0)
(0.738989 8.00053e-16 0)
(0.738989 1.58346e-15 0)
(0.738989 -1.16932e-15 0)
(0.738989 4.69118e-16 0)
(0.738989 -4.58712e-16 0)
(0.738989 -2.6096e-16 0)
(0.738989 1.76939e-15 0)
(0.738989 -1.9469e-15 0)
(0.738989 -6.21305e-16 0)
(0.738989 3.70798e-15 0)
(0.738989 -1.08914e-15 0)
(0.738989 -1.62281e-15 0)
(0.738989 2.54828e-16 0)
(0.738989 -8.11847e-16 0)
(0.738989 1.12267e-15 0)
(0.738989 -1.1561e-15 0)
(0.738989 1.20215e-17 0)
(0.738989 1.98917e-15 0)
(0.738989 1.27199e-15 0)
(0.738989 -1.20983e-15 0)
(0.738989 -1.1463e-15 0)
(0.738989 1.02018e-16 0)
(0.738989 3.6683e-16 0)
(0.738989 5.38712e-16 0)
(0.738989 -8.02804e-16 0)
(0.738989 1.85706e-15 0)
(0.738989 8.56651e-17 0)
(0.738989 -9.92894e-16 0)
(0.738989 1.27224e-15 0)
(0.738989 1.2701e-15 0)
(0.738989 -6.41147e-16 0)
(0.738989 1.04152e-15 0)
(0.738989 4.59117e-16 0)
(0.738989 2.96642e-16 0)
(0.738989 4.89329e-15 0)
(0.738989 3.43151e-15 0)
(0.738989 5.65498e-16 0)
(0.738989 4.84772e-15 0)
(0.738989 7.03078e-15 0)
(0.738989 1.15831e-14 0)
(1.21832 1.47311e-14 0)
(1.21832 1.00924e-14 0)
(1.21832 6.58248e-15 0)
(1.21832 4.37311e-15 0)
(1.21832 3.23602e-15 0)
(1.21832 2.5762e-15 0)
(1.21832 2.01098e-15 0)
(1.21832 1.6292e-15 0)
(1.21832 1.12005e-15 0)
(1.21832 7.30693e-16 0)
(1.21832 5.15404e-16 0)
(1.21832 3.41832e-16 0)
(1.21832 1.83932e-16 0)
(1.21832 -5.84788e-17 0)
(1.21832 -1.57813e-16 0)
(1.21832 -6.8978e-17 0)
(1.21832 -2.49827e-16 0)
(1.21832 -2.28115e-16 0)
(1.21832 2.75434e-16 0)
(1.21832 3.12422e-16 0)
(1.21832 -1.51302e-17 0)
(1.21832 4.00093e-17 0)
(1.21832 2.11051e-16 0)
(1.21832 7.68783e-17 0)
(1.21832 5.54882e-17 0)
(1.21832 -1.75231e-17 0)
(1.21832 -1.18634e-16 0)
(1.21832 2.72771e-17 0)
(1.21832 -6.11513e-16 0)
(1.21832 -6.09042e-16 0)
(1.21832 -7.66266e-17 0)
(1.21832 3.51433e-16 0)
(1.21832 2.30946e-16 0)
(1.21832 -1.01422e-16 0)
(1.21832 -1.18219e-17 0)
(1.21832 2.57867e-16 0)
(1.21832 -1.85312e-17 0)
(1.21832 2.26764e-16 0)
(1.21832 5.36178e-16 0)
(1.21832 2.22988e-16 0)
(1.21832 4.27348e-16 0)
(1.21832 2.85384e-16 0)
(1.21832 1.23363e-17 0)
(1.21832 -9.8556e-18 0)
(1.21832 -5.85489e-17 0)
(1.21832 -1.83381e-17 0)
(1.21832 2.7328e-16 0)
(1.21832 -2.68382e-16 0)
(1.21832 6.37518e-17 0)
(1.21832 5.16617e-16 0)
(1.21832 -2.48497e-16 0)
(1.21832 -1.03667e-15 0)
(1.21832 -1.03805e-15 0)
(1.21832 -3.64075e-16 0)
(1.21832 -1.63784e-16 0)
(1.21832 -2.46394e-16 0)
(1.21832 4.73857e-16 0)
(1.21832 -1.54107e-16 0)
(1.21832 -4.07569e-16 0)
(1.21832 1.74765e-16 0)
(1.21832 6.03518e-17 0)
(1.21832 1.12659e-16 0)
(1.21832 2.09955e-17 0)
(1.21832 7.04366e-16 0)
(1.21832 1.01417e-15 0)
(1.21832 4.84175e-16 0)
(1.21832 -1.21309e-16 0)
(1.21832 -2.75257e-16 0)
(1.21832 -8.61745e-17 0)
(1.21832 -8.12088e-17 0)
(1.21832 6.0216e-18 0)
(1.21832 1.64259e-16 0)
(1.21832 4.17519e-16 0)
(1.21832 -2.77418e-16 0)
(1.21832 -5.71968e-16 0)
(1.21832 8.86481e-16 0)
(1.21832 8.31899e-16 0)
(1.21832 -7.2546e-17 0)
(1.21832 2.30698e-16 0)
(1.21832 7.2566e-16 0)
(1.21832 1.32569e-15 0)
(1.21832 1.31277e-15 0)
(1.21832 1.08513e-15 0)
(1.21832 7.75239e-16 0)
(1.21832 6.08889e-16 0)
(1.21832 7.35479e-16 0)
(1.21832 3.49254e-16 0)
(1.21832 8.16635e-16 0)
(1.21832 4.99774e-16 0)
(1.21832 2.83128e-16 0)
(1.21832 5.22441e-16 0)
(1.21832 6.32917e-16 0)
(1.21832 6.17823e-16 0)
(1.21832 8.51695e-16 0)
(1.21832 4.91446e-16 0)
(1.21832 -1.04864e-15 0)
(1.21832 -6.15622e-16 0)
(1.21832 8.11397e-16 0)
(1.21832 -6.90297e-16 0)
(1.21832 -1.2304e-15 0)
(1.21832 5.66257e-16 0)
(1.21832 3.02941e-16 0)
(1.21832 -5.83105e-16 0)
(1.21832 -9.16815e-16 0)
(1.21832 -5.07555e-16 0)
(1.21832 -2.34766e-16 0)
(1.21832 -4.12069e-16 0)
(1.21832 -4.4134e-16 0)
(1.21832 8.23608e-16 0)
(1.21832 9.61572e-16 0)
(1.21832 -1.9462e-16 0)
(1.21832 -4.22618e-16 0)
(1.21832 -3.76e-16 0)
(1.21832 1.16849e-15 0)
(1.21832 5.59692e-16 0)
(1.21832 -1.75802e-15 0)
(1.21832 -5.62919e-16 0)
(1.21832 1.28135e-15 0)
(1.21832 6.12454e-16 0)
(1.21832 -4.20795e-16 0)
(1.21832 -5.68045e-16 0)
(1.21832 4.36925e-16 0)
(1.21832 8.3648e-16 0)
(1.21832 -7.68984e-17 0)
(1.21832 -1.43647e-16 0)
(1.21832 1.89e-17 0)
(1.21832 -1.21608e-15 0)
(1.21832 -7.50896e-16 0)
(1.21832 2.02101e-16 0)
(1.21832 -5.00434e-16 0)
(1.21832 1.45286e-16 0)
(1.21832 -1.06359e-16 0)
(1.21832 3.64342e-16 0)
(1.21832 -2.96097e-16 0)
(1.21832 -3.7468e-16 0)
(1.21832 2.52144e-16 0)
(1.21832 3.40164e-17 0)
(1.21832 -2.68082e-16 0)
(1.21832 8.63979e-16 0)
(1.21832 1.52058e-15 0)
(1.21832 -7.81596e-16 0)
(1.21832 -1.3797e-15 0)
(1.21832 9.47214e-16 0)
(1.21832 1.36142e-15 0)
(1.21832 -1.00433e-15 0)
(1.21832 -4.92132e-16 0)
(1.21832 2.002e-15 0)
(1.21832 4.1129e-16 0)
(1.21832 -1.60892e-15 0)
(1.21832 -3.21194e-16 0)
(1.21832 -2.39096e-16 0)
(1.21832 6.1172e-16 0)
(1.21832 8.89323e-16 0)
(1.21832 -6.07013e-16 0)
(1.21832 -1.90136e-16 0)
(1.21832 -2.20583e-16 0)
(1.21832 -9.2619e-16 0)
(1.21832 -7.79884e-16 0)
(1.21832 -1.38876e-16 0)
(1.21832 8.43929e-16 0)
(1.21832 -3.07995e-16 0)
(1.21832 -7.7526e-16 0)
(1.21832 3.63293e-16 0)
(1.21832 -1.41158e-16 0)
(1.21832 -2.21788e-16 0)
(1.21832 2.2197e-17 0)
(1.21832 2.91975e-17 0)
(1.21832 -1.53154e-16 0)
(1.21832 8.87817e-16 0)
(1.21832 1.2206e-15 0)
(1.21832 5.45284e-16 0)
(1.21832 -7.39013e-17 0)
(1.21832 7.96345e-16 0)
(1.21832 8.38836e-16 0)
(1.21832 -1.12189e-15 0)
(1.21832 -2.06326e-16 0)
(1.21832 1.571e-15 0)
(1.21832 -7.67065e-16 0)
(1.21832 -6.27143e-16 0)
(1.21832 1.35296e-15 0)
(1.21832 -4.08668e-16 0)
(1.21832 -9.22129e-16 0)
(1.21832 -9.52633e-16 0)
(1.21832 -7.91894e-16 0)
(1.21832 1.84316e-15 0)
(1.21832 9.49966e-16 0)
(1.21832 -9.21499e-16 0)
(1.21832 2.22734e-16 0)
(1.21832 1.07065e-15 0)
(1.21832 -5.3788e-16 0)
(1.21832 -7.7151e-16 0)
(1.21832 -8.40919e-16 0)
(1.21832 4.74008e-17 0)
(1.21832 2.15981e-15 0)
(1.21832 7.92783e-16 0)
(1.21832 1.42239e-15 0)
(1.21832 2.33139e-15 0)
(1.21832 -1.21571e-15 0)
(1.21832 -1.79359e-15 0)
(1.21832 7.75195e-17 0)
(1.21832 1.80086e-17 0)
(1.21832 -7.70491e-16 0)
(1.21832 1.75043e-15 0)
(1.21832 2.87864e-16 0)
(1.21832 9.5244e-16 0)
(1.21832 1.8098e-15 0)
(1.21832 -2.19113e-15 0)
(1.21832 -2.16651e-15 0)
(1.21832 -5.01656e-16 0)
(1.21832 6.15051e-16 0)
(1.21832 4.92847e-16 0)
(1.21832 7.0777e-16 0)
(1.21832 -8.63704e-16 0)
(1.21832 -4.15314e-17 0)
(1.21832 -4.85214e-16 0)
(1.21832 -3.90119e-16 0)
(1.21832 -1.05565e-15 0)
(1.21832 1.07586e-16 0)
(1.21832 2.33139e-15 0)
(1.21832 1.03975e-15 0)
(1.21832 -9.69973e-16 0)
(1.21832 -1.4871e-15 0)
(1.21832 4.11422e-17 0)
(1.21832 -8.86405e-16 0)
(1.21832 2.48366e-16 0)
(1.21832 -6.76208e-17 0)
(1.21832 2.07467e-16 0)
(1.21832 2.67673e-15 0)
(1.21832 2.29327e-15 0)
(1.21832 -8.33118e-16 0)
(1.21832 -5.98626e-16 0)
(1.21832 -6.40703e-16 0)
(1.21832 -1.30143e-15 0)
(1.21832 1.19403e-15 0)
(1.21832 1.44603e-16 0)
(1.21832 7.44678e-16 0)
(1.21832 1.52661e-15 0)
(1.21832 9.43749e-17 0)
(1.21832 4.26113e-17 0)
(1.21832 4.14373e-16 0)
(1.21832 -9.46001e-16 0)
(1.21832 -1.12704e-15 0)
(1.21832 7.97079e-17 0)
(1.21832 1.69077e-15 0)
(1.21832 9.02553e-16 0)
(1.21832 -1.2176e-15 0)
(1.21832 6.48811e-16 0)
(1.21832 5.35176e-16 0)
(1.21832 -1.06119e-16 0)
(1.21832 4.6676e-16 0)
(1.21832 8.79851e-17 0)
(1.21832 -3.57969e-17 0)
(1.21832 2.17244e-15 0)
(1.21832 2.74184e-16 0)
(1.21832 -2.01408e-15 0)
(1.21832 8.97627e-16 0)
(1.21832 4.03478e-16 0)
(1.21832 -9.97302e-16 0)
(1.21832 -2.50115e-16 0)
(1.21832 -1.24679e-16 0)
(1.21832 1.287e-15 0)
(1.21832 2.5e-15 0)
(1.21832 2.24863e-16 0)
(1.21832 -2.51051e-16 0)
(1.21832 -2.31319e-15 0)
(1.21832 -1.63932e-15 0)
(1.21832 2.67223e-15 0)
(1.21832 -6.43123e-16 0)
(1.21832 4.8897e-16 0)
(1.21832 3.98586e-15 0)
(1.21832 -7.03165e-16 0)
(1.21832 -2.38506e-15 0)
(1.21832 -1.37011e-15 0)
(1.21832 -7.90503e-16 0)
(1.21832 8.59629e-16 0)
(1.21832 -8.22443e-16 0)
(1.21832 -1.42514e-16 0)
(1.21832 2.75876e-15 0)
(1.21832 1.45664e-15 0)
(1.21832 1.7345e-17 0)
(1.21832 -1.12244e-15 0)
(1.21832 -2.30884e-15 0)
(1.21832 1.74789e-16 0)
(1.21832 2.02716e-15 0)
(1.21832 -1.45437e-15 0)
(1.21832 1.62403e-15 0)
(1.21832 1.47903e-15 0)
(1.21832 -1.71341e-15 0)
(1.21832 1.98422e-15 0)
(1.21832 4.05007e-16 0)
(1.21832 -1.30265e-15 0)
(1.21832 1.0021e-15 0)
(1.21832 1.26186e-15 0)
(1.21832 2.39313e-15 0)
(1.21832 6.55409e-15 0)
(1.21832 3.4265e-15 0)
(1.21832 1.92935e-15 0)
(1.21832 5.14705e-15 0)
(1.21832 7.03822e-15 0)
(1.21832 1.0867e-14 0)
(1.68765 9.67994e-15 0)
(1.68765 7.43223e-15 0)
(1.68765 5.27416e-15 0)
(1.68765 3.7475e-15 0)
(1.68765 3.01675e-15 0)
(1.68765 2.6243e-15 0)
(1.68765 2.05266e-15 0)
(1.68765 1.55614e-15 0)
(1.68765 1.01048e-15 0)
(1.68765 5.47175e-16 0)
(1.68765 8.33444e-19 0)
(1.68765 -2.32926e-16 0)
(1.68765 -2.39776e-16 0)
(1.68765 -3.18854e-16 0)
(1.68765 -5.28209e-16 0)
(1.68765 -7.40997e-16 0)
(1.68765 -3.81985e-16 0)
(1.68765 -4.94239e-16 0)
(1.68765 -5.75906e-17 0)
(1.68765 2.33227e-16 0)
(1.68765 1.83215e-16 0)
(1.68765 -1.69028e-16 0)
(1.68765 2.63531e-17 0)
(1.68765 -4.17536e-17 0)
(1.68765 -1.04259e-16 0)
(1.68765 -3.42642e-16 0)
(1.68765 -3.49598e-16 0)
(1.68765 -1.89285e-16 0)
(1.68765 -7.29994e-16 0)
(1.68765 -1.12061e-15 0)
(1.68765 -4.25732e-16 0)
(1.68765 2.09019e-16 0)
(1.68765 1.52226e-16 0)
(1.68765 3.48884e-16 0)
(1.68765 2.7305e-16 0)
(1.68765 2.99082e-16 0)
(1.68765 -1.63454e-16 0)
(1.68765 4.43323e-16 0)
(1.68765 7.74253e-16 0)
(1.68765 5.37582e-16 0)
(1.68765 4.65519e-16 0)
(1.68765 6.71215e-17 0)
(1.68765 9.94352e-18 0)
(1.68765 -1.44345e-16 0)
(1.68765 -1.24355e-16 0)
(1.68765 2.89352e-16 0)
(1.68765 -3.72003e-18 0)
(1.68765 -4.20455e-16 0)
(1.68765 -3.30525e-16 0)
(1.68765 -2.00845e-16 0)
(1.68765 -4.25875e-16 0)
(1.68765 -1.23288e-15 0)
(1.68765 -1.72761e-15 0)
(1.68765 -8.96622e-16 0)
(1.68765 -4.15539e-16 0)
(1.68765 -4.39319e-16 0)
(1.68765 1.09227e-16 0)
(1.68765 -1.34904e-16 0)
(1.68765 -7.33008e-17 0)
(1.68765 1.29492e-16 0)
(1.68765 5.85482e-17 0)
(1.68765 5.41975e-16 0)
(1.68765 6.23677e-16 0)
(1.68765 9.41665e-16 0)
(1.68765 8.77204e-16 0)
(1.68765 7.99332e-16 0)
(1.68765 1.49114e-17 0)
(1.68765 -4.9961e-16 0)
(1.68765 2.53397e-16 0)
(1.68765 1.33346e-16 0)
(1.68765 -1.60908e-16 0)
(1.68765 5.92631e-17 0)
(1.68765 7.57357e-16 0)
(1.68765 -7.10241e-17 0)
(1.68765 -5.63288e-16 0)
(1.68765 1.61699e-15 0)
(1.68765 1.39357e-15 0)
(1.68765 2.25939e-16 0)
(1.68765 3.25686e-16 0)
(1.68765 1.75003e-15 0)
(1.68765 2.28384e-15 0)
(1.68765 1.43277e-15 0)
(1.68765 1.73031e-15 0)
(1.68765 1.43692e-15 0)
(1.68765 9.50868e-16 0)
(1.68765 1.2437e-15 0)
(1.68765 9.29694e-16 0)
(1.68765 1.04099e-15 0)
(1.68765 7.53646e-16 0)
(1.68765 1.28052e-15 0)
(1.68765 1.8208e-15 0)
(1.68765 9.92595e-16 0)
(1.68765 9.66647e-16 0)
(1.68765 9.95746e-16 0)
(1.68765 4.73174e-16 0)
(1.68765 -2.19691e-16 0)
(1.68765 -1.1502e-16 0)
(1.68765 6.30281e-17 0)
(1.68765 -1.01399e-15 0)
(1.68765 -1.21826e-15 0)
(1.68765 4.7358e-16 0)
(1.68765 7.40147e-16 0)
(1.68765 -1.97521e-16 0)
(1.68765 -1.08664e-15 0)
(1.68765 -9.75559e-16 0)
(1.68765 -7.73215e-16 0)
(1.68765 -8.67604e-16 0)
(1.68765 -6.33689e-16 0)
(1.68765 1.34848e-15 0)
(1.68765 1.19426e-15 0)
(1.68765 -2.77969e-16 0)
(1.68765 -6.61994e-16 0)
(1.68765 -4.93234e-17 0)
(1.68765 1.14899e-15 0)
(1.68765 4.74395e-16 0)
(1.68765 -8.5547e-16 0)
(1.68765 -7.00153e-16 0)
(1.68765 6.56734e-16 0)
(1.68765 7.85864e-16 0)
(1.68765 -5.69218e-16 0)
(1.68765 -5.40526e-16 0)
(1.68765 7.55239e-17 0)
(1.68765 6.5275e-16 0)
(1.68765 1.45764e-16 0)
(1.68765 -2.72055e-17 0)
(1.68765 -1.71813e-16 0)
(1.68765 -6.5475e-16 0)
(1.68765 -8.74542e-16 0)
(1.68765 -5.94907e-16 0)
(1.68765 -4.26308e-16 0)
(1.68765 -6.1123e-17 0)
(1.68765 1.64417e-16 0)
(1.68765 4.48594e-16 0)
(1.68765 -4.23953e-16 0)
(1.68765 -6.97937e-16 0)
(1.68765 6.8495e-16 0)
(1.68765 -3.74139e-16 0)
(1.68765 3.59574e-16 0)
(1.68765 1.56468e-15 0)
(1.68765 8.12e-16 0)
(1.68765 -2.35035e-16 0)
(1.68765 -1.21929e-15 0)
(1.68765 1.22307e-15 0)
(1.68765 1.88455e-15 0)
(1.68765 -1.32275e-15 0)
(1.68765 4.18371e-17 0)
(1.68765 2.4466e-15 0)
(1.68765 -4.68895e-16 0)
(1.68765 -1.56774e-15 0)
(1.68765 4.93355e-17 0)
(1.68765 -2.57868e-16 0)
(1.68765 6.22446e-16 0)
(1.68765 9.29505e-16 0)
(1.68765 -8.4631e-16 0)
(1.68765 -3.67558e-16 0)
(1.68765 -1.60208e-16 0)
(1.68765 -1.39983e-15 0)
(1.68765 -1.64022e-15 0)
(1.68765 -8.96581e-16 0)
(1.68765 1.39577e-15 0)
(1.68765 8.52475e-16 0)
(1.68765 -6.63714e-16 0)
(1.68765 -1.00855e-15 0)
(1.68765 -5.41506e-16 0)
(1.68765 4.8597e-16 0)
(1.68765 1.9098e-16 0)
(1.68765 -2.257e-16 0)
(1.68765 -4.85225e-16 0)
(1.68765 1.84415e-15 0)
(1.68765 2.2783e-15 0)
(1.68765 1.8198e-16 0)
(1.68765 5.63445e-16 0)
(1.68765 1.10231e-15 0)
(1.68765 -9.02726e-17 0)
(1.68765 -5.18316e-16 0)
(1.68765 6.24725e-16 0)
(1.68765 8.10371e-16 0)
(1.68765 -1.06108e-15 0)
(1.68765 -9.14992e-16 0)
(1.68765 1.30036e-15 0)
(1.68765 2.40264e-16 0)
(1.68765 -1.56653e-15 0)
(1.68765 -6.70062e-16 0)
(1.68765 -2.70162e-16 0)
(1.68765 5.50183e-16 0)
(1.68765 3.62569e-16 0)
(1.68765 9.21752e-17 0)
(1.68765 -2.37003e-16 0)
(1.68765 9.44074e-16 0)
(1.68765 3.62776e-16 0)
(1.68765 -1.14089e-15 0)
(1.68765 -5.8252e-16 0)
(1.68765 9.51012e-16 0)
(1.68765 2.44576e-15 0)
(1.68765 1.57302e-15 0)
(1.68765 1.59486e-15 0)
(1.68765 2.15365e-15 0)
(1.68765 -5.03049e-16 0)
(1.68765 -1.76876e-15 0)
(1.68765 1.16486e-17 0)
(1.68765 -1.03915e-17 0)
(1.68765 -7.86376e-16 0)
(1.68765 1.36999e-15 0)
(1.68765 1.09484e-15 0)
(1.68765 1.98461e-15 0)
(1.68765 1.60941e-15 0)
(1.68765 -2.17472e-15 0)
(1.68765 -2.31542e-15 0)
(1.68765 -4.09414e-16 0)
(1.68765 1.30989e-16 0)
(1.68765 3.22953e-16 0)
(1.68765 1.77448e-17 0)
(1.68765 -3.85806e-16 0)
(1.68765 1.19129e-16 0)
(1.68765 -1.92093e-15 0)
(1.68765 4.0122e-17 0)
(1.68765 -9.5494e-16 0)
(1.68765 1.30715e-17 0)
(1.68765 2.77565e-15 0)
(1.68765 1.32347e-15 0)
(1.68765 -9.50705e-16 0)
(1.68765 -1.0793e-15 0)
(1.68765 -5.42046e-16 0)
(1.68765 -5.07075e-16 0)
(1.68765 -1.38884e-16 0)
(1.68765 -4.10406e-16 0)
(1.68765 1.35414e-15 0)
(1.68765 1.95117e-15 0)
(1.68765 2.51003e-15 0)
(1.68765 -1.80078e-16 0)
(1.68765 -4.75371e-16 0)
(1.68765 -5.2888e-16 0)
(1.68765 -3.90799e-16 0)
(1.68765 3.54892e-16 0)
(1.68765 -1.10181e-16 0)
(1.68765 1.62882e-15 0)
(1.68765 2.08009e-15 0)
(1.68765 1.1859e-16 0)
(1.68765 -4.16271e-17 0)
(1.68765 -4.0721e-16 0)
(1.68765 -3.12385e-16 0)
(1.68765 -2.8723e-16 0)
(1.68765 -2.67498e-16 0)
(1.68765 2.43694e-15 0)
(1.68765 5.85847e-16 0)
(1.68765 2.33054e-16 0)
(1.68765 2.64607e-16 0)
(1.68765 -4.63708e-16 0)
(1.68765 1.08481e-15 0)
(1.68765 1.66694e-15 0)
(1.68765 -5.22681e-17 0)
(1.68765 1.69046e-16 0)
(1.68765 8.6216e-16 0)
(1.68765 1.97405e-16 0)
(1.68765 -5.484e-16 0)
(1.68765 -6.26278e-16 0)
(1.68765 3.8608e-16 0)
(1.68765 -2.01636e-16 0)
(1.68765 -2.47477e-16 0)
(1.68765 -1.29306e-15 0)
(1.68765 2.37766e-15 0)
(1.68765 3.49173e-15 0)
(1.68765 -2.44814e-16 0)
(1.68765 3.28817e-17 0)
(1.68765 -2.3366e-15 0)
(1.68765 -2.45099e-15 0)
(1.68765 3.06934e-15 0)
(1.68765 1.09546e-15 0)
(1.68765 -7.75796e-17 0)
(1.68765 3.69511e-15 0)
(1.68765 -1.62581e-15 0)
(1.68765 -3.16595e-15 0)