/*--------------------------------*- C++ -*----------------------------------*\
| =========                 |                                                 |
| \\      /  F ield         | OpenFOAM: The Open Source CFD Toolbox           |
|  \\    /   O peration     | Version:  2406                                  |
|   \\  /    A nd           | Website:  www.openfoam.com                      |
|    \\/     M anipulation  |                                                 |
\*---------------------------------------------------------------------------*/
FoamFile
{
    version     2.0;
    format      ascii;
    arch        "LSB;label=32;scalar=64";
    class       volScalarField;
    location    "299.96349999922785";
    object      p;
}
// * * * * * * * * * * * * * * * * * * * * * * * * * * * * * * * * * * * * * //

dimensions      [0 2 -2 0 0 0 0];

internalField   nonuniform List<scalar> 
40000
(
1.30828e-09
3.78496e-05
6.44621e-05
8.02834e-05
8.63255e-05
8.10479e-05
6.22339e-05
2.7727e-05
-2.45635e-05
-9.66814e-05
-0.000190588
-0.000308134
-0.000451052
-0.000620976
-0.000819464
-0.00104804
-0.00130821
-0.00160153
-0.00192956
-0.00229395
-0.00269636
-0.00313847
-0.00362194
-0.00414839
-0.00471928
-0.00533596
-0.00599953
-0.00671085
-0.00747046
-0.00827858
-0.00913506
-0.0100394
-0.0109906
-0.0119875
-0.0130284
-0.0141112
-0.0152339
-0.0163937
-0.017588
-0.0188139
-0.0200685
-0.0213488
-0.0226525
-0.0239759
-0.025317
-0.0266735
-0.0280431
-0.0294242
-0.0308151
-0.0322146
-0.0336218
-0.0350359
-0.0364563
-0.0378826
-0.0393145
-0.0407518
-0.0421942
-0.0436415
-0.0450934
-0.0465495
-0.0480094
-0.0494724
-0.0509378
-0.0524048
-0.0538724
-0.0553395
-0.056805
-0.0582676
-0.059726
-0.0611788
-0.0626245
-0.0640616
-0.0654885
-0.0669036
-0.0683052
-0.0696915
-0.0710607
-0.0724109
-0.0737402
-0.0750465
-0.0763277
-0.0775816
-0.0788058
-0.0799979
-0.0811555
-0.0822759
-0.0833563
-0.0843939
-0.0853858
-0.0863289
-0.0872199
-0.0880556
-0.0888325
-0.0895471
-0.0901957
-0.0907745
-0.0912796
-0.0917069
-0.0920523
-0.0923115
-0.000749566
-0.00070708
-0.000676139
-0.000656128
-0.000645773
-0.000646605
-0.000660896
-0.000690855
-0.000738629
-0.000806322
-0.000895957
-0.00100943
-0.00114852
-0.00131487
-0.00151002
-0.00173546
-0.00199265
-0.00228305
-0.00260815
-0.00296949
-0.00336863
-0.00380718
-0.00428672
-0.00480879
-0.00537483
-0.00598614
-0.00664382
-0.00734871
-0.00810137
-0.00890205
-0.00975062
-0.0106466
-0.0115891
-0.0125769
-0.0136085
-0.0146818
-0.0157947
-0.0169447
-0.0181291
-0.0193451
-0.0205899
-0.0218605
-0.0231541
-0.0244681
-0.0257999
-0.0271472
-0.028508
-0.0298803
-0.0312627
-0.032654
-0.0340531
-0.0354593
-0.0368719
-0.0382907
-0.0397152
-0.0411452
-0.0425805
-0.0440208
-0.0454659
-0.0469153
-0.0483686
-0.0498252
-0.0512844
-0.0527454
-0.0542072
-0.0556687
-0.0571288
-0.0585862
-0.0600397
-0.0614878
-0.0629291
-0.0643621
-0.0657852
-0.0671967
-0.068595
-0.0699783
-0.0713448
-0.0726927
-0.0740199
-0.0753244
-0.0766041
-0.0778568
-0.0790801
-0.0802716
-0.0814287
-0.0825489
-0.0836294
-0.0846673
-0.0856597
-0.0866033
-0.0874951
-0.0883317
-0.0891096
-0.0898253
-0.090475
-0.0910548
-0.091561
-0.0919892
-0.0923355
-0.0925955
-0.00132746
-0.001281
-0.00124623
-0.00122237
-0.00120794
-0.00120444
-0.00121421
-0.00123952
-0.00128256
-0.00134552
-0.0014305
-0.00153947
-0.00167425
-0.00183654
-0.0020279
-0.00224979
-0.00250363
-0.00279083
-0.00311279
-0.00347097
-0.00386683
-0.00430189
-0.00477766
-0.00529562
-0.00585714
-0.00646351
-0.00711581
-0.00781487
-0.00856129
-0.00935533
-0.0101969
-0.0110855
-0.0120205
-0.0130005
-0.0140241
-0.0150893
-0.0161941
-0.0173359
-0.0185123
-0.0197203
-0.0209572
-0.0222202
-0.0235063
-0.0248129
-0.0261376
-0.027478
-0.028832
-0.0301978
-0.0315739
-0.0329589
-0.0343519
-0.0357521
-0.0371589
-0.0385718
-0.0399905
-0.0414148
-0.0428445
-0.0442792
-0.0457188
-0.0471628
-0.0486107
-0.050062
-0.0515161
-0.052972
-0.0544288
-0.0558856
-0.0573411
-0.0587942
-0.0602435
-0.0616877
-0.0631253
-0.0645549
-0.0659747
-0.0673834
-0.068779
-0.07016
-0.0715244
-0.0728705
-0.0741962
-0.0754994
-0.0767782
-0.0780301
-0.079253
-0.0804443
-0.0816015
-0.082722
-0.083803
-0.0848415
-0.0858347
-0.0867794
-0.0876724
-0.0885102
-0.0892894
-0.0900064
-0.0906574
-0.0912385
-0.0917459
-0.0921753
-0.0925225
-0.0927833
-0.00174529
-0.00169551
-0.0016574
-0.00163005
-0.0016118
-0.00160413
-0.00160942
-0.00162999
-0.00166811
-0.00172604
-0.00180597
-0.00190996
-0.00203993
-0.00219762
-0.00238463
-0.00260245
-0.00285247
-0.00313606
-0.00345455
-0.00380933
-0.00420177
-0.00463329
-0.00510534
-0.0056193
-0.00617654
-0.00677827
-0.00742557
-0.00811929
-0.00886003
-0.00964808
-0.0104834
-0.0113656
-0.0122939
-0.0132672
-0.014284
-0.0153425
-0.0164405
-0.0175758
-0.0187456
-0.0199474
-0.0211783
-0.0224354
-0.0237159
-0.0250173
-0.0263368
-0.0276723
-0.0290216
-0.0303828
-0.0317544
-0.0331351
-0.0345239
-0.0359199
-0.0373224
-0.0387312
-0.0401457
-0.0415658
-0.0429912
-0.0444217
-0.0458569
-0.0472966
-0.0487403
-0.0501873
-0.0516372
-0.0530889
-0.0545418
-0.0559946
-0.0574464
-0.0588959
-0.0603418
-0.0617828
-0.0632174
-0.0646442
-0.0660615
-0.0674679
-0.0688615
-0.0702407
-0.0716036
-0.0729484
-0.0742732
-0.0755757
-0.076854
-0.0781058
-0.0793287
-0.0805203
-0.0816781
-0.0827993
-0.0838812
-0.0849209
-0.0859154
-0.0868615
-0.087756
-0.0885954
-0.0893762
-0.0900948
-0.0907474
-0.0913301
-0.0918389
-0.0922696
-0.0926179
-0.0928796
-0.00201606
-0.00196359
-0.00192264
-0.00189219
-0.00187039
-0.00185874
-0.00185963
-0.00187542
-0.00190846
-0.00196108
-0.00203556
-0.00213409
-0.00225868
-0.00241115
-0.00259318
-0.00280628
-0.00305188
-0.00333131
-0.00364586
-0.00399683
-0.00438553
-0.00481331
-0.00528151
-0.00579146
-0.00634446
-0.0069417
-0.00758424
-0.00827292
-0.00900837
-0.0097909
-0.0106205
-0.0114969
-0.0124193
-0.0133867
-0.0143977
-0.0154505
-0.016543
-0.0176729
-0.0188377
-0.0200346
-0.0212609
-0.0225138
-0.0237905
-0.0250882
-0.0264044
-0.0277367
-0.0290831
-0.0304415
-0.0318105
-0.0331886
-0.0345748
-0.0359682
-0.0373682
-0.0387742
-0.040186
-0.0416033
-0.0430257
-0.0444531
-0.0458852
-0.0473217
-0.048762
-0.0502058
-0.0516524
-0.0531009
-0.0545505
-0.0560003
-0.057449
-0.0588957
-0.0603389
-0.0617774
-0.0632096
-0.0646343
-0.0660497
-0.0674544
-0.0688466
-0.0702246
-0.0715866
-0.0729307
-0.074255
-0.0755574
-0.0768358
-0.0780879
-0.0793114
-0.0805038
-0.0816626
-0.0827851
-0.0838684
-0.0849097
-0.0859059
-0.0868539
-0.0877503
-0.0885916
-0.0893745
-0.0900951
-0.0907496
-0.0913341
-0.0918446
-0.0922767
-0.0926263
-0.092889
-0.00215368
-0.00209914
-0.00205584
-0.00202266
-0.00199763
-0.00198221
-0.00197881
-0.00198983
-0.00201765
-0.00206471
-0.00213338
-0.00222595
-0.00234456
-0.00249114
-0.00266746
-0.00287512
-0.00311556
-0.00339012
-0.00370007
-0.00404666
-0.00443113
-0.00485475
-0.00531879
-0.0058245
-0.00637313
-0.00696583
-0.00760362
-0.00828737
-0.0090177
-0.00979498
-0.0106193
-0.0114902
-0.0124073
-0.0133694
-0.0143752
-0.0154231
-0.0165109
-0.0176364
-0.0187972
-0.0199905
-0.0212135
-0.0224635
-0.0237377
-0.0250332
-0.0263475
-0.0276783
-0.0290232
-0.0303805
-0.0317483
-0.0331254
-0.0345105
-0.0359028
-0.0373016
-0.0387064
-0.0401167
-0.0415323
-0.042953
-0.0443784
-0.0458084
-0.0472427
-0.0486807
-0.0501221
-0.0515662
-0.0530123
-0.0544595
-0.0559069
-0.0573534
-0.0587978
-0.060239
-0.0616756
-0.0631061
-0.0645293
-0.0659434
-0.067347
-0.0687383
-0.0701157
-0.0714773
-0.0728214
-0.0741458
-0.0754486
-0.0767276
-0.0779805
-0.0792051
-0.0803989
-0.0815592
-0.0826834
-0.0837686
-0.084812
-0.0858104
-0.0867606
-0.0876594
-0.0885032
-0.0892884
-0.0900113
-0.0906681
-0.0912547
-0.0917671
-0.092201
-0.0925521
-0.0928158
-0.00217258
-0.00211656
-0.0020714
-0.00203589
-0.00200794
-0.001989
-0.00198147
-0.00198775
-0.00201028
-0.00205154
-0.00211404
-0.00220018
-0.0023122
-0.00245218
-0.00262201
-0.00282338
-0.00305779
-0.00332662
-0.00363114
-0.00397259
-0.00435214
-0.00477099
-0.00523034
-0.00573138
-0.00627529
-0.00686317
-0.00749602
-0.00817471
-0.00889987
-0.0096719
-0.0104909
-0.0113566
-0.0122686
-0.0132257
-0.0142268
-0.0152701
-0.0163539
-0.0174757
-0.0186332
-0.0198237
-0.0210445
-0.0222926
-0.0235653
-0.0248598
-0.0261735
-0.027504
-0.0288488
-0.0302062
-0.0315743
-0.0329516
-0.0343371
-0.0357296
-0.0371284
-0.0385331
-0.0399431
-0.0413582
-0.0427782
-0.0442027
-0.0456316
-0.0470645
-0.0485011
-0.0499409
-0.0513833
-0.0528277
-0.0542731
-0.0557188
-0.0571637
-0.0586066
-0.0600463
-0.0614816
-0.062911
-0.0643332
-0.0657466
-0.0671497
-0.0685407
-0.069918
-0.0712798
-0.0726242
-0.0739493
-0.075253
-0.0765332
-0.0777875
-0.0790137
-0.0802093
-0.0813717
-0.0824981
-0.0835858
-0.0846317
-0.0856328
-0.0865858
-0.0874873
-0.088334
-0.089122
-0.0898477
-0.0905071
-0.0910962
-0.0916108
-0.0920467
-0.0923994
-0.0926644
-0.00208727
-0.00203034
-0.0019838
-0.00194634
-0.00191583
-0.00189365
-0.00188218
-0.00188381
-0.00190101
-0.00193633
-0.00199235
-0.00207158
-0.00217642
-0.00230908
-0.00247157
-0.00266572
-0.00289313
-0.00315524
-0.00345336
-0.00378871
-0.00416244
-0.0045757
-0.00502962
-0.00552533
-0.00606393
-0.00664648
-0.00727397
-0.00794724
-0.00866693
-0.00943348
-0.010247
-0.0111074
-0.0120141
-0.0129663
-0.0139628
-0.0150019
-0.0160818
-0.0172003
-0.018355
-0.0195433
-0.0207623
-0.0220093
-0.0232814
-0.0245758
-0.0258898
-0.0272209
-0.0285668
-0.0299253
-0.0312948
-0.0326735
-0.0340603
-0.0354541
-0.0368542
-0.0382598
-0.0396706
-0.0410862
-0.0425064
-0.0439309
-0.0453595
-0.0467919
-0.0482278
-0.0496667
-0.0511082
-0.0525514
-0.0539958
-0.0554404
-0.0568842
-0.0583261
-0.0597649
-0.0611995
-0.0626283
-0.0640501
-0.0654633
-0.0668663
-0.0682576
-0.0696353
-0.0709978
-0.0723432
-0.0736695
-0.0749746
-0.0762564
-0.0775127
-0.0787411
-0.079939
-0.0811039
-0.0822331
-0.0833237
-0.0843727
-0.085377
-0.0863332
-0.0872381
-0.088088
-0.0888793
-0.0896081
-0.0902706
-0.0908625
-0.0913797
-0.0918178
-0.0921724
-0.0924388
-0.00191211
-0.00185481
-0.00180733
-0.00176834
-0.00173562
-0.0017105
-0.00169532
-0.00169245
-0.00170435
-0.00173362
-0.00178291
-0.00185483
-0.00195192
-0.00207653
-0.00223085
-0.00241681
-0.00263617
-0.00289045
-0.00318104
-0.00350917
-0.00387599
-0.00428263
-0.00473015
-0.00521963
-0.00575211
-0.00632861
-0.00695006
-0.0076173
-0.00833098
-0.00909156
-0.00989923
-0.0107539
-0.0116551
-0.0126021
-0.0135937
-0.0146284
-0.0157044
-0.0168197
-0.0179717
-0.0191579
-0.0203756
-0.0216218
-0.0228938
-0.0241887
-0.0255036
-0.0268361
-0.0281838
-0.0295444
-0.030916
-0.0322971
-0.0336862
-0.0350823
-0.0364844
-0.0378919
-0.0393043
-0.0407213
-0.0421425
-0.0435678
-0.0449969
-0.0464295
-0.0478654
-0.0493041
-0.0507452
-0.052188
-0.0536318
-0.0550758
-0.0565191
-0.0579605
-0.059399
-0.0608332
-0.062262
-0.0636838
-0.0650973
-0.0665008
-0.0678927
-0.0692715
-0.0706351
-0.0719819
-0.0733099
-0.074617
-0.075901
-0.0771597
-0.0783907
-0.0795916
-0.0807596
-0.0818921
-0.0829862
-0.0840388
-0.0850467
-0.0860067
-0.0869154
-0.0877691
-0.0885641
-0.0892965
-0.0899624
-0.0905575
-0.0910776
-0.0915183
-0.0918751
-0.0921432
-0.00166098
-0.0016038
-0.00155584
-0.0015157
-0.00148113
-0.00145341
-0.0014348
-0.00142761
-0.00143431
-0.0014575
-0.00149988
-0.00156417
-0.001653
-0.0017689
-0.00191419
-0.002091
-0.0023012
-0.00254647
-0.00282828
-0.00314792
-0.00350659
-0.00390537
-0.00434533
-0.00482747
-0.0053528
-0.00592227
-0.00653679
-0.00719716
-0.00790404
-0.00865791
-0.00945901
-0.0103073
-0.0112024
-0.0121436
-0.0131299
-0.0141598
-0.0152316
-0.0163433
-0.0174925
-0.0186765
-0.0198928
-0.0211384
-0.0224105
-0.0237061
-0.0250224
-0.0263567
-0.0277067
-0.0290699
-0.0304444
-0.0318285
-0.0332206
-0.0346197
-0.0360246
-0.0374348
-0.0388496
-0.0402686
-0.0416917
-0.0431184
-0.0445486
-0.0459821
-0.0474185
-0.0488576
-0.0502988
-0.0517416
-0.0531854
-0.0546293
-0.0560724
-0.0575138
-0.0589523
-0.0603867
-0.0618158
-0.0632381
-0.0646523
-0.0660567
-0.0674499
-0.06883
-0.0701953
-0.0715441
-0.0728742
-0.0741837
-0.0754705
-0.0767321
-0.0779664
-0.0791707
-0.0803423
-0.0814787
-0.0825767
-0.0836334
-0.0846456
-0.0856099
-0.0865229
-0.0873809
-0.0881801
-0.0889166
-0.0895863
-0.0901851
-0.0907085
-0.0911521
-0.0915113
-0.0917814
-0.0013471
-0.0012905
-0.00124247
-0.00120157
-0.00116554
-0.00113556
-0.00111382
-0.00110258
-0.00110423
-0.00112139
-0.00115678
-0.00121319
-0.00129335
-0.00139994
-0.00153543
-0.00170212
-0.00190207
-0.0021371
-0.0024088
-0.00271859
-0.00306769
-0.00345723
-0.00388826
-0.00436176
-0.00487868
-0.00543993
-0.00604639
-0.00669882
-0.00739789
-0.00814408
-0.00893768
-0.0097787
-0.0106668
-0.0116015
-0.0125817
-0.0136061
-0.0146731
-0.0157806
-0.0169264
-0.0181079
-0.0193225
-0.0205672
-0.0218392
-0.0231355
-0.0244532
-0.0257896
-0.027142
-0.0285082
-0.029886
-0.0312735
-0.0326692
-0.0340718
-0.0354802
-0.0368936
-0.0383114
-0.0397331
-0.0411585
-0.0425872
-0.0440191
-0.0454539
-0.0468914
-0.0483313
-0.0497731
-0.0512164
-0.0526605
-0.0541047
-0.0555481
-0.0569898
-0.0584287
-0.0598637
-0.0612935
-0.0627167
-0.064132
-0.0655378
-0.0669325
-0.0683144
-0.0696819
-0.071033
-0.0723658
-0.0736783
-0.0749683
-0.0762334
-0.0774714
-0.0786796
-0.0798555
-0.0809962
-0.0820988
-0.0831602
-0.0841772
-0.0851464
-0.0860642
-0.086927
-0.0877309
-0.088472
-0.0891461
-0.0897489
-0.090276
-0.0907229
-0.0910848
-0.0913571
-0.000982833
-0.000927235
-0.000879517
-0.000838231
-0.000801107
-0.000769247
-0.000744725
-0.000729718
-0.000726566
-0.000737833
-0.000766249
-0.000814637
-0.000885832
-0.000982608
-0.00110761
-0.00126331
-0.00145194
-0.00167551
-0.00193577
-0.00223425
-0.00257229
-0.00295107
-0.00337165
-0.00383501
-0.00434207
-0.00489372
-0.00549077
-0.00613399
-0.00682401
-0.00756133
-0.00834628
-0.0091789
-0.010059
-0.010986
-0.0119591
-0.012977
-0.0140382
-0.0151407
-0.0162823
-0.0174606
-0.0186729
-0.0199162
-0.0211877
-0.0224843
-0.0238032
-0.0251415
-0.0264964
-0.0278657
-0.0292469
-0.0306381
-0.0320376
-0.0334441
-0.0348563
-0.0362733
-0.0376946
-0.0391194
-0.0405476
-0.0419788
-0.0434128
-0.0448494
-0.0462884
-0.0477295
-0.0491723
-0.0506163
-0.0520611
-0.0535059
-0.0549499
-0.0563923
-0.057832
-0.0592678
-0.0606986
-0.0621231
-0.0635398
-0.0649473
-0.066344
-0.0677282
-0.0690983
-0.0704522
-0.0717882
-0.0731041
-0.0743977
-0.0756669
-0.0769091
-0.0781219
-0.0793025
-0.0804482
-0.0815559
-0.0826226
-0.0836449
-0.0846195
-0.0855427
-0.0864109
-0.08722
-0.0879662
-0.0886451
-0.0892524
-0.0897837
-0.0902342
-0.0905993
-0.0908741
-0.0005796
-0.000525371
-0.000478326
-0.000437006
-0.000399156
-0.000365786
-0.000338855
-0.00032043
-0.000312766
-0.000318363
-0.000339923
-0.000380281
-0.000442326
-0.000528931
-0.000642884
-0.000786818
-0.000963161
-0.00117411
-0.0014216
-0.00170732
-0.00203274
-0.00239914
-0.00280763
-0.00325922
-0.00375482
-0.00429528
-0.00488141
-0.00551393
-0.00619347
-0.00692053
-0.00769546
-0.00851837
-0.0093891
-0.0103072
-0.0112719
-0.0122821
-0.0133363
-0.0144327
-0.0155691
-0.0167431
-0.0179521
-0.0191931
-0.0204634
-0.0217598
-0.0230793
-0.0244191
-0.0257763
-0.0271483
-0.0285329
-0.0299278
-0.0313313
-0.0327418
-0.034158
-0.035579
-0.0370039
-0.0384323
-0.0398636
-0.0412976
-0.0427341
-0.0441728
-0.0456136
-0.0470561
-0.0485002
-0.0499453
-0.0513911
-0.0528367
-0.0542816
-0.0557249
-0.0571656
-0.0586025
-0.0600347
-0.0614607
-0.0628792
-0.0642888
-0.0656878
-0.0670747
-0.0684476
-0.0698049
-0.0711444
-0.0724642
-0.0737621
-0.0750357
-0.0762828
-0.0775006
-0.0786866
-0.0798377
-0.0809512
-0.0820237
-0.083052
-0.0840325
-0.0849618
-0.0858358
-0.0866508
-0.0874026
-0.0880868
-0.0886992
-0.089235
-0.0896896
-0.0900582
-0.0903358
-0.000147751
-9.52145e-05
-4.91632e-05
-8.14088e-06
3.00784e-05
6.45783e-05
9.35317e-05
0.000114991
0.000126811
0.000126579
0.00011165
7.92135e-05
2.63541e-05
-4.98717e-05
-0.000152364
-0.000283911
-0.000447123
-0.000644392
-0.000877858
-0.0011494
-0.00146066
-0.00181302
-0.00220771
-0.00264578
-0.00312817
-0.00365573
-0.00422925
-0.00484942
-0.00551687
-0.00623211
-0.00699547
-0.00780714
-0.00866701
-0.00957472
-0.0105296
-0.0115306
-0.0125764
-0.0136652
-0.0147951
-0.0159635
-0.017168
-0.0184058
-0.0196738
-0.020969
-0.0222884
-0.0236289
-0.0249878
-0.0263623
-0.0277498
-0.0291482
-0.0305555
-0.0319699
-0.0333902
-0.0348152
-0.0362441
-0.0376761
-0.0391107
-0.0405478
-0.041987
-0.043428
-0.0448708
-0.0463151
-0.0477607
-0.0492071
-0.050654
-0.0521007
-0.0535467
-0.0549911
-0.0564329
-0.0578713
-0.059305
-0.0607328
-0.0621534
-0.0635653
-0.064967
-0.0663569
-0.0677332
-0.0690941
-0.0704376
-0.0717618
-0.0730644
-0.0743431
-0.0755955
-0.0768189
-0.0780108
-0.079168
-0.0802878
-0.0813667
-0.0824015
-0.0833887
-0.0843245
-0.0852051
-0.0860265
-0.0867844
-0.0874746
-0.0880924
-0.0886333
-0.0890925
-0.089465
-0.0897458
0.000303468
0.000354038
0.000398811
0.000439231
0.00047748
0.000512738
0.000543315
0.000567399
0.000582968
0.000587722
0.000579103
0.000554352
0.000510565
0.000444764
0.000353964
0.000235249
8.58384e-05
-9.68536e-05
-0.000315176
-0.000571218
-0.000866802
-0.0012035
-0.00158265
-0.0020054
-0.00247275
-0.00298558
-0.00354467
-0.00415071
-0.00480431
-0.00550598
-0.00625609
-0.00705483
-0.00790216
-0.00879782
-0.0097412
-0.0107314
-0.0117671
-0.0128468
-0.0139685
-0.0151299
-0.0163285
-0.0175615
-0.0188259
-0.0201188
-0.021437
-0.0227774
-0.0241371
-0.0255132
-0.0269032
-0.0283045
-0.0297153
-0.0311335
-0.0325577
-0.0339866
-0.0354193
-0.036855
-0.0382931
-0.0397334
-0.0411753
-0.0426189
-0.0440639
-0.0455101
-0.0469573
-0.0484051
-0.0498533
-0.0513013
-0.0527485
-0.0541941
-0.0556374
-0.0570773
-0.0585127
-0.0599425
-0.0613654
-0.06278
-0.0641846
-0.0655779
-0.0669579
-0.0683229
-0.0696709
-0.0709999
-0.0723077
-0.073592
-0.0748502
-0.0760798
-0.0772781
-0.0784421
-0.0795687
-0.0806548
-0.0816967
-0.0826911
-0.0836342
-0.0845219
-0.0853503
-0.0861149
-0.0868115
-0.0874355
-0.087982
-0.0884461
-0.088823
-0.0891074
0.000765921
0.000814298
0.000857547
0.000897091
0.000935052
0.000970709
0.00100251
0.00102879
0.00104767
0.00105697
0.00105425
0.00103683
0.00100186
0.00094636
0.000867297
0.000761658
0.000626517
0.000459108
0.000256874
1.75087e-05
-0.000261024
-0.000580489
-0.000942397
-0.00134803
-0.00179847
-0.00229467
-0.00283741
-0.00342742
-0.0040653
-0.00475156
-0.00548657
-0.00627056
-0.00710355
-0.00798533
-0.0089154
-0.00989296
-0.0109169
-0.0119856
-0.0130974
-0.01425
-0.0154409
-0.0166676
-0.0179269
-0.019216
-0.0205316
-0.0218706
-0.02323
-0.0246069
-0.0259984
-0.0274021
-0.0288157
-0.0302372
-0.0316649
-0.0330976
-0.0345339
-0.0359732
-0.0374148
-0.0388581
-0.040303
-0.0417491
-0.0431964
-0.0446445
-0.0460934
-0.0475428
-0.0489924
-0.0504417
-0.0518902
-0.0533372
-0.054782
-0.0562235
-0.0576609
-0.0590929
-0.0605184
-0.0619358
-0.0633437
-0.0647406
-0.0661247
-0.0674941
-0.0688471
-0.0701814
-0.0714948
-0.0727852
-0.0740498
-0.0752862
-0.0764915
-0.0776628
-0.078797
-0.0798907
-0.0809405
-0.0819428
-0.0828937
-0.0837892
-0.0846251
-0.0853972
-0.0861008
-0.0867314
-0.087284
-0.0877536
-0.0881353
-0.0884237
0.00123258
0.00127859
0.00132011
0.00135854
0.00139592
0.00143163
0.00146427
0.00149231
0.00151402
0.00152737
0.00153006
0.00151952
0.00149298
0.0014475
0.00138003
0.0012875
0.00116687
0.00101522
0.000829804
0.00060809
0.000347819
4.70074e-05
-0.000296054
-0.000682817
-0.0011145
-0.00159214
-0.00211659
-0.0026886
-0.00330879
-0.00397767
-0.00469564
-0.00546295
-0.00627966
-0.00714563
-0.00806046
-0.00902343
-0.0100335
-0.0110894
-0.0121892
-0.0133311
-0.0145126
-0.015731
-0.0169835
-0.018267
-0.0195785
-0.0209147
-0.0222725
-0.0236488
-0.0250408
-0.0264459
-0.0278615
-0.0292856
-0.0307164
-0.0321522
-0.033592
-0.0350346
-0.0364794
-0.0379258
-0.0393734
-0.0408221
-0.0422716
-0.0437217
-0.0451724
-0.0466234
-0.0480744
-0.049525
-0.0509749
-0.0524234
-0.0538697
-0.0553131
-0.0567525
-0.0581869
-0.059615
-0.0610355
-0.062447
-0.0638478
-0.0652363
-0.0666106
-0.0679689
-0.0693089
-0.0706286
-0.0719255
-0.0731971
-0.0744408
-0.0756538
-0.0768331
-0.0779754
-0.0790774
-0.0801357
-0.0811465
-0.0821059
-0.0830098
-0.083854
-0.0846341
-0.0853454
-0.0859831
-0.0865424
-0.0870181
-0.0874051
-0.0876978
0.0016975
0.00174101
0.00178064
0.00181774
0.00185428
0.00188973
0.00192283
0.0019522
0.00197626
0.00199314
0.0020007
0.00199649
0.00197787
0.00194195
0.00188575
0.00180614
0.00170004
0.00156439
0.00139626
0.00119293
0.00095191
0.000670983
0.000348216
-1.80444e-05
-0.000429189
-0.000886379
-0.00139058
-0.00194259
-0.00254307
-0.00319256
-0.00389148
-0.00464009
-0.00543851
-0.00628665
-0.00718419
-0.00813052
-0.00912473
-0.0101656
-0.0112515
-0.0123805
-0.0135503
-0.0147585
-0.0160021
-0.0172783
-0.0185838
-0.0199154
-0.0212699
-0.0226443
-0.0240355
-0.0254407
-0.0268574
-0.0282832
-0.0297162
-0.0311547
-0.0325973
-0.0340428
-0.0354905
-0.0369397
-0.03839
-0.0398411
-0.0412927
-0.0427448
-0.0441972
-0.0456497
-0.0471021
-0.0485542
-0.0500055
-0.0514554
-0.0529034
-0.0543486
-0.0557902
-0.0572271
-0.0586581
-0.060082
-0.0614972
-0.0629023
-0.0642955
-0.065675
-0.067039
-0.0683852
-0.0697115
-0.0710156
-0.0722948
-0.0735464
-0.0747677
-0.0759555
-0.0771066
-0.0782177
-0.0792851
-0.0803051
-0.0812737
-0.0821867
-0.0830399
-0.0838286
-0.0845481
-0.0851937
-0.0857602
-0.0862425
-0.0866352
-0.0869329
0.00215571
0.00219663
0.00223424
0.00226984
0.00230533
0.00234023
0.00237344
0.00240372
0.00242965
0.00244952
0.00246135
0.00246287
0.00245155
0.00242464
0.00237919
0.00231214
0.00222033
0.00210064
0.00195001
0.00176553
0.00154449
0.00128443
0.000983198
0.000638898
0.000249938
-0.000185014
-0.000667057
-0.00119709
-0.00177584
-0.00240389
-0.00308169
-0.00380954
-0.00458759
-0.00541581
-0.00629395
-0.0072215
-0.00819766
-0.00922131
-0.010291
-0.0114049
-0.012561
-0.0137567
-0.0149893
-0.0162559
-0.0175533
-0.0188784
-0.020228
-0.0215987
-0.0229875
-0.0243914
-0.0258079
-0.0272343
-0.0286686
-0.0301089
-0.0315536
-0.0330015
-0.0344516
-0.0359033
-0.0373559
-0.0388091
-0.0402628
-0.0417167
-0.0431707
-0.0446247
-0.0460785
-0.0475319
-0.0489846
-0.050436
-0.0518857
-0.0533329
-0.0547767
-0.0562162
-0.0576503
-0.0590776
-0.0604968
-0.0619064
-0.0633047
-0.0646898
-0.0660599
-0.0674128
-0.0687463
-0.070058
-0.0713453
-0.0726055
-0.0738357
-0.0750327
-0.0761933
-0.0773141
-0.0783914
-0.0794213
-0.0803998
-0.0813226
-0.0821853
-0.0829834
-0.0837119
-0.0843659
-0.0849403
-0.0854297
-0.0858287
-0.0861318
0.0026032
0.00264149
0.00267699
0.00271096
0.00274519
0.00277929
0.00281229
0.00284308
0.00287041
0.00289273
0.00290824
0.00291482
0.00291013
0.00289153
0.00285619
0.00280111
0.00272316
0.00261916
0.00248596
0.00232049
0.00211986
0.00188138
0.00160265
0.00128154
0.000916217
0.000505144
4.70508e-05
-0.000459099
-0.00101414
-0.00161871
-0.00227332
-0.00297832
-0.00373389
-0.00454006
-0.00539664
-0.00630322
-0.00725911
-0.00826331
-0.00931451
-0.010411
-0.0115509
-0.0127318
-0.013951
-0.0152058
-0.016493
-0.0178094
-0.0191518
-0.0205169
-0.0219016
-0.0233026
-0.0247173
-0.0261431
-0.0275774
-0.0290185
-0.0304645
-0.031914
-0.033366
-0.0348196
-0.0362741
-0.0377292
-0.0391846
-0.0406401
-0.0420955
-0.0435509
-0.0450061
-0.0464608
-0.0479148
-0.0493677
-0.0508191
-0.0522682
-0.0537144
-0.0551566
-0.0565938
-0.0580249
-0.0594483
-0.0608627
-0.0622664
-0.0636575
-0.0650341
-0.0663942
-0.0677354
-0.0690552
-0.0703512
-0.0716206
-0.0728603
-0.0740672
-0.0752381
-0.0763693
-0.0774571
-0.0784976
-0.0794867
-0.0804201
-0.0812931
-0.0821012
-0.0828393
-0.0835024
-0.0840853
-0.0845824
-0.0849884
-0.0852973
0.00303681
0.00307246
0.0031058
0.00313803
0.00317085
0.00320394
0.00323643
0.00326737
0.00329565
0.0033199
0.00333846
0.00334944
0.00335062
0.00333957
0.00331359
0.00326976
0.00320501
0.00311619
0.00300007
0.00285349
0.00267339
0.00245688
0.00220133
0.00190435
0.00156387
0.00117811
0.000745589
0.000265101
-0.000264323
-0.000843443
-0.00147283
-0.0021529
-0.00288388
-0.00366586
-0.00449871
-0.00538211
-0.00631546
-0.0072979
-0.00832824
-0.00940497
-0.0105262
-0.0116898
-0.0128932
-0.0141337
-0.0154082
-0.0167137
-0.0180467
-0.0194041
-0.0207825
-0.0221788
-0.0235901
-0.0250135
-0.0264466
-0.0278872
-0.0293334
-0.0307837
-0.0322367
-0.0336915
-0.0351475
-0.036604
-0.0380608
-0.0395176
-0.0409743
-0.0424309
-0.0438872
-0.0453431
-0.0467984
-0.0482528
-0.0497059
-0.051157
-0.0526056
-0.0540506
-0.0554912
-0.0569261
-0.0583541
-0.0597735
-0.0611829
-0.0625804
-0.063964
-0.0653316
-0.066681
-0.0680096
-0.0693149
-0.0705941
-0.071844
-0.0730615
-0.0742433
-0.0753856
-0.0764847
-0.0775366
-0.0785371
-0.0794817
-0.0803658
-0.0811846
-0.081933
-0.0826059
-0.0831979
-0.0837034
-0.0841168
-0.0844321
0.00345413
0.00348715
0.00351832
0.00354875
0.00358003
0.00361191
0.00364365
0.00367442
0.00370324
0.0037289
0.00374994
0.00376461
0.00377093
0.0037666
0.00374911
0.00371567
0.00366332
0.00358894
0.00348931
0.00336121
0.00320145
0.00300699
0.00277496
0.00250274
0.00218801
0.00182873
0.00142318
0.000969952
0.000467892
-8.38962e-05
-0.000686096
-0.0013392
-0.00204351
-0.00279917
-0.00360613
-0.00446414
-0.00537269
-0.00633105
-0.00733815
-0.00839263
-0.00949277
-0.0106365
-0.0118216
-0.0130452
-0.0143045
-0.0155964
-0.0169177
-0.018265
-0.0196349
-0.0210244
-0.0224303
-0.0238496
-0.0252798
-0.0267185
-0.0281637
-0.0296135
-0.0310667
-0.032522
-0.0339787
-0.0354361
-0.0368938
-0.0383516
-0.0398093
-0.0412668
-0.0427242
-0.0441812
-0.0456377
-0.0470936
-0.0485483
-0.0500015
-0.0514525
-0.0529005
-0.0543445
-0.0557835
-0.0572162
-0.058641
-0.0600564
-0.0614606
-0.0628516
-0.0642274
-0.0655855
-0.0669235
-0.0682387
-0.0695282
-0.0707891
-0.0720179
-0.0732113
-0.0743655
-0.0754767
-0.0765407
-0.0775533
-0.0785099
-0.0794058
-0.0802361
-0.0809956
-0.0816789
-0.0822807
-0.0827952
-0.0832166
-0.0835389
0.00385342
0.00388388
0.00391287
0.00394145
0.00397111
0.00400165
0.00403242
0.00406273
0.00409171
0.00411832
0.00414126
0.00415897
0.00416964
0.0041712
0.00416129
0.0041373
0.0040964
0.00403555
0.0039516
0.0038413
0.0037014
0.00352871
0.00332021
0.00307304
0.00278464
0.0024527
0.00207525
0.00165064
0.0011775
0.000654759
8.15927e-05
-0.000542603
-0.00121823
-0.0019455
-0.00272443
-0.00355485
-0.00443637
-0.00536833
-0.00634981
-0.00737958
-0.0084561
-0.00957746
-0.0107415
-0.0119456
-0.013187
-0.0144628
-0.0157696
-0.0171043
-0.0184634
-0.0198437
-0.021242
-0.0226553
-0.0240808
-0.025516
-0.0269586
-0.0284067
-0.0298589
-0.0313137
-0.0327703
-0.0342279
-0.035686
-0.0371443
-0.0386026
-0.0400609
-0.0415191
-0.042977
-0.0444347
-0.0458919
-0.0473484
-0.0488036
-0.0502571
-0.0517082
-0.0531559
-0.0545991
-0.0560367
-0.0574672
-0.058889
-0.0603004
-0.0616993
-0.0630836
-0.064451
-0.0657989
-0.0671247
-0.0684253
-0.0696978
-0.0709386
-0.0721444
-0.0733113
-0.0744353
-0.0755123
-0.0765378
-0.0775072
-0.0784157
-0.0792581
-0.0800294
-0.0807239
-0.0813361
-0.0818602
-0.0822903
-0.0826201
0.00423353
0.00426149
0.00428834
0.00431506
0.00434304
0.00437212
0.00440176
0.00443135
0.00446017
0.00448731
0.00451161
0.00453172
0.00454602
0.00455261
0.00454935
0.0045338
0.0045033
0.00445495
0.00438567
0.00429226
0.00417146
0.00401998
0.00383467
0.00361249
0.00335063
0.00304655
0.00269801
0.00230308
0.00186017
0.001368
0.000825539
0.000232058
-0.000412968
-0.00110985
-0.00185868
-0.00265939
-0.00351165
-0.00441494
-0.00536844
-0.00637107
-0.00742142
-0.00851779
-0.0096581
-0.01084
-0.0120608
-0.0133176
-0.0146073
-0.0159267
-0.0172723
-0.018641
-0.0200294
-0.0214344
-0.0228531
-0.0242828
-0.0257212
-0.0271662
-0.028616
-0.0300692
-0.0315248
-0.0329817
-0.0344396
-0.0358979
-0.0373564
-0.0388151
-0.0402738
-0.0417325
-0.0431912
-0.0446498
-0.0461079
-0.0475653
-0.0490214
-0.0504756
-0.0519271
-0.0533749
-0.0548177
-0.0562542
-0.0576828
-0.0591017
-0.0605089
-0.0619023
-0.0632796
-0.0646381
-0.065975
-0.0672875
-0.0685723
-0.0698259
-0.0710448
-0.0722252
-0.0733628
-0.0744535
-0.0754928
-0.0764758
-0.0773976
-0.0782531
-0.0790368
-0.0797432
-0.0803666
-0.080901
-0.0813403
-0.0816783
0.00459378
0.00461935
0.00464411
0.00466898
0.00469524
0.00472279
0.00475116
0.00477983
0.0048082
0.00483548
0.00486068
0.0048826
0.00489981
0.00491061
0.00491306
0.00490493
0.00488374
0.00484674
0.004791
0.00471339
0.00461067
0.00447956
0.00431678
0.00411917
0.00388372
0.00360765
0.00328847
0.00292397
0.0025123
0.00205194
0.00154165
0.000980515
0.000367857
-0.000296749
-0.00101351
-0.00178244
-0.00260331
-0.00347569
-0.0043989
-0.00537198
-0.00639368
-0.00746244
-0.00857637
-0.00973327
-0.0109306
-0.0121657
-0.0134354
-0.0147366
-0.016066
-0.0174203
-0.0187962
-0.0201905
-0.0216002
-0.0230224
-0.0244547
-0.0258948
-0.0273408
-0.0287911
-0.0302444
-0.0316998
-0.0331566
-0.0346142
-0.0360725
-0.0375311
-0.0389901
-0.0404494
-0.041909
-0.0433688
-0.0448286
-0.0462881
-0.047747
-0.0492046
-0.0506601
-0.0521126
-0.0535609
-0.0550037
-0.0564395
-0.0578664
-0.0592825
-0.0606856
-0.0620733
-0.063443
-0.0647918
-0.0661168
-0.0674146
-0.0686818
-0.0699147
-0.0711093
-0.0722614
-0.0733667
-0.0744205
-0.0754179
-0.0763538
-0.0772231
-0.0780201
-0.0787392
-0.0793745
-0.0799198
-0.080369
-0.0807157
0.00493394
0.00495721
0.00497994
0.005003
0.00502754
0.00505351
0.0050805
0.00510809
0.00513577
0.00516286
0.00518852
0.00521172
0.00523118
0.00524542
0.00525269
0.00525095
0.00523794
0.0052111
0.00516765
0.0051046
0.00501878
0.00490693
0.00476575
0.00459197
0.00438244
0.00413417
0.00384441
0.00351073
0.00313098
0.00270338
0.00222646
0.00169906
0.00112036
0.000489747
-0.000193097
-0.000928289
-0.00171572
-0.00255505
-0.00344571
-0.00438689
-0.00537747
-0.00641606
-0.00750095
-0.0086301
-0.00980117
-0.0110115
-0.0122583
-0.0135385
-0.0148488
-0.0161859
-0.0175465
-0.0189275
-0.0203256
-0.021738
-0.0231621
-0.0245954
-0.0260358
-0.0274817
-0.0289315
-0.0303843
-0.031839
-0.0332953
-0.0347526
-0.0362107
-0.0376696
-0.0391293
-0.0405896
-0.0420506
-0.0435121
-0.0449738
-0.0464355
-0.0478966
-0.0493564
-0.0508139
-0.0522681
-0.0537177
-0.055161
-0.0565964
-0.0580219
-0.0594352
-0.060834
-0.0622155
-0.063577
-0.0649152
-0.0662269
-0.0675085
-0.0687561
-0.0699658
-0.0711332
-0.0722539
-0.073323
-0.0743357
-0.0752866
-0.0761705
-0.0769815
-0.077714
-0.0783619
-0.0789189
-0.0793787
-0.0797347