/*--------------------------------*- C++ -*----------------------------------*\
| =========                 |                                                 |
| \\      /  F ield         | OpenFOAM: The Open Source CFD Toolbox           |
|  \\    /   O peration     | Version:  2406                                  |
|   \\  /    A nd           | Website:  www.openfoam.com                      |
|    \\/     M anipulation  |                                                 |
\*---------------------------------------------------------------------------*/
FoamFile
{
    version     2.0;
    format      ascii;
    arch        "LSB;label=32;scalar=64";
    class       surfaceScalarField;
    location    "299.96349999922785";
    object      phi;
}
// * * * * * * * * * * * * * * * * * * * * * * * * * * * * * * * * * * * * * //

dimensions      [0 3 -1 0 0 0 0];

oriented        oriented;

internalField   nonuniform List<scalar> 
79600
(
6.07816e-08
1.3807e-06
-1.44148e-06
2.25057e-07
4.13332e-06
-4.2976e-06
4.75276e-07
6.91366e-06
-7.16388e-06
7.92794e-07
9.71028e-06
-1.00278e-05
1.15833e-06
1.25088e-05
-1.28744e-05
1.55259e-06
1.52932e-05
-1.56875e-05
1.95689e-06
1.80467e-05
-1.8451e-05
2.3539e-06
2.07533e-05
-2.11503e-05
2.72828e-06
2.33985e-05
-2.37729e-05
3.06728e-06
2.59711e-05
-2.63101e-05
3.36113e-06
2.84632e-05
-2.87571e-05
3.60327e-06
3.08713e-05
-3.11135e-05
3.79041e-06
3.31959e-05
-3.3383e-05
3.92223e-06
3.54416e-05
-3.55734e-05
4.00109e-06
3.76163e-05
-3.76951e-05
4.03138e-06
3.97304e-05
-3.97606e-05
4.01894e-06
4.17957e-05
-4.17833e-05
3.97037e-06
4.38245e-05
-4.37759e-05
3.89248e-06
4.5828e-05
-4.57501e-05
3.79171e-06
4.7816e-05
-4.77152e-05
3.67377e-06
4.97959e-05
-4.9678e-05
3.54345e-06
5.17724e-05
-5.16421e-05
3.4045e-06
5.37472e-05
-5.36083e-05
3.25964e-06
5.57193e-05
-5.55744e-05
3.11069e-06
5.76851e-05
-5.75361e-05
2.95874e-06
5.96389e-05
-5.94869e-05
2.80425e-06
6.15733e-05
-6.14189e-05
2.64731e-06
6.34798e-05
-6.33229e-05
2.48769e-06
6.53489e-05
-6.51893e-05
2.32502e-06
6.71708e-05
-6.70081e-05
2.15882e-06
6.89356e-05
-6.87694e-05
1.98858e-06
7.06338e-05
-7.04636e-05
1.81381e-06
7.22564e-05
-7.20816e-05
1.63403e-06
7.37949e-05
-7.36151e-05
1.44881e-06
7.52422e-05
-7.50569e-05
1.2578e-06
7.6592e-05
-7.6401e-05
1.06068e-06
7.78397e-05
-7.76426e-05
8.57227e-07
7.8982e-05
-7.87786e-05
6.47298e-07
8.00171e-05
-7.98072e-05
4.30817e-07
8.0945e-05
-8.07285e-05
2.07784e-07
8.17672e-05
-8.15442e-05
-2.16972e-08
8.24868e-05
-8.22573e-05
-2.57134e-07
8.31083e-05
-8.28729e-05
-4.9855e-07
8.36379e-05
-8.33965e-05
-7.45572e-07
8.40825e-05
-8.38355e-05
-9.97732e-07
8.44498e-05
-8.41976e-05
-1.25451e-06
8.47481e-05
-8.44913e-05
-1.51534e-06
8.49859e-05
-8.47251e-05
-1.77962e-06
8.51714e-05
-8.49072e-05
-2.0467e-06
8.53125e-05
-8.50454e-05
-2.31596e-06
8.54161e-05
-8.51468e-05
-2.58675e-06
8.5488e-05
-8.52172e-05
-2.85848e-06
8.55329e-05
-8.52611e-05
-3.13058e-06
8.55541e-05
-8.5282e-05
-3.40253e-06
8.55534e-05
-8.52815e-05
-3.67388e-06
8.55314e-05
-8.52601e-05
-3.94424e-06
8.54872e-05
-8.52169e-05
-4.2133e-06
8.54189e-05
-8.51499e-05
-4.48079e-06
8.53236e-05
-8.50561e-05
-4.74654e-06
8.51977e-05
-8.49319e-05
-5.01042e-06
8.5037e-05
-8.47732e-05
-5.27236e-06
8.48372e-05
-8.45753e-05
-5.53233e-06
8.45937e-05
-8.43338e-05
-5.79037e-06
8.43021e-05
-8.40441e-05
-6.04651e-06
8.39581e-05
-8.3702e-05
-6.30083e-06
8.35577e-05
-8.33033e-05
-6.55343e-06
8.3097e-05
-8.28444e-05
-6.80443e-06
8.25725e-05
-8.23215e-05
-7.05397e-06
8.19811e-05
-8.17316e-05
-7.30218e-06
8.13197e-05
-8.10715e-05
-7.54923e-06
8.05853e-05
-8.03383e-05
-7.79529e-06
7.97751e-05
-7.95291e-05
-8.04056e-06
7.88863e-05
-7.8641e-05
-8.28525e-06
7.79159e-05
-7.76712e-05
-8.52959e-06
7.68608e-05
-7.66165e-05
-8.77384e-06
7.5718e-05
-7.54737e-05
-9.01831e-06
7.4484e-05
-7.42395e-05
-9.26331e-06
7.31553e-05
-7.29103e-05
-9.5092e-06
7.17282e-05
-7.14823e-05
-9.75637e-06
7.01988e-05
-6.99516e-05
-1.00053e-05
6.85628e-05
-6.83139e-05
-1.02564e-05
6.6816e-05
-6.65649e-05
-1.05103e-05
6.49538e-05
-6.46999e-05
-1.07675e-05
6.29714e-05
-6.27142e-05
-1.10286e-05
6.0864e-05
-6.06028e-05
-1.12945e-05
5.86264e-05
-5.83605e-05
-1.15657e-05
5.62531e-05
-5.59819e-05
-1.18432e-05
5.37386e-05
-5.34612e-05
-1.21277e-05
5.10771e-05
-5.07926e-05
-1.24201e-05
4.82623e-05
-4.79698e-05
-1.27216e-05
4.5288e-05
-4.49866e-05
-1.3033e-05
4.21473e-05
-4.18359e-05
-1.33555e-05
3.88333e-05
-3.85108e-05
-1.36901e-05
3.53385e-05
-3.50038e-05
-1.40382e-05
3.16551e-05
-3.13071e-05
-1.44009e-05
2.7775e-05
-2.74123e-05
-1.47795e-05
2.36893e-05
-2.33107e-05
-1.51753e-05
1.9389e-05
-1.89932e-05
-1.55897e-05
1.48644e-05
-1.445e-05
1.01052e-05
-1.6024e-05
-9.67091e-06
6.59351e-08
1.31477e-06
2.46549e-07
3.95271e-06
5.25271e-07
6.63494e-06
8.84262e-07
9.35129e-06
1.30478e-06
1.20883e-05
1.76767e-06
1.48303e-05
2.25401e-06
1.75604e-05
2.74576e-06
2.02615e-05
3.22644e-06
2.29178e-05
3.68177e-06
2.55158e-05
4.10017e-06
2.80448e-05
4.47311e-06
3.04984e-05
4.79526e-06
3.28738e-05
5.06438e-06
3.51724e-05
5.28108e-06
3.73996e-05
5.44832e-06
3.95631e-05
5.57084e-06
4.16732e-05
5.65454e-06
4.37408e-05
5.7058e-06
4.57767e-05
5.73092e-06
4.77909e-05
5.7357e-06
4.97912e-05
5.72509e-06
5.1783e-05
5.70304e-06
5.37693e-05
5.67244e-06
5.57499e-05
5.63522e-06
5.77223e-05
5.59243e-06
5.96817e-05
5.54445e-06
6.16213e-05
5.49117e-06
6.35331e-05
5.43209e-06
6.5408e-05
5.36654e-06
6.72364e-05
5.2937e-06
6.90085e-05
5.21274e-06
7.07148e-05
5.12286e-06
7.23462e-05
5.02332e-06
7.38944e-05
4.9135e-06
7.5352e-05
4.79287e-06
7.67127e-05
4.66105e-06
7.79716e-05
4.51781e-06
7.91253e-05
4.36305e-06
8.01719e-05
4.19687e-06
8.11112e-05
4.01949e-06
8.19446e-05
3.83132e-06
8.2675e-05
3.63272e-06
8.33069e-05
3.42453e-06
8.38461e-05
3.20755e-06
8.42995e-05
2.98266e-06
8.46747e-05
2.75084e-06
8.49799e-05
2.51312e-06
8.52236e-05
2.27053e-06
8.5414e-05
2.02412e-06
8.55589e-05
1.77489e-06
8.56653e-05
1.5238e-06
8.57391e-05
1.27171e-06
8.5785e-05
1.01937e-06
8.58064e-05
7.67442e-07
8.58054e-05
5.16456e-07
8.57824e-05
2.66827e-07
8.57369e-05
1.88577e-08
8.56669e-05
-2.27259e-07
8.55697e-05
-4.71407e-07
8.54418e-05
-7.13553e-07
8.52792e-05
-9.53722e-07
8.50774e-05
-1.19199e-06
8.4832e-05
-1.42845e-06
8.45386e-05
-1.66323e-06
8.41929e-05
-1.89647e-06
8.37909e-05
-2.1283e-06
8.33288e-05
-2.35886e-06
8.28031e-05
-2.58829e-06
8.22106e-05
-2.81675e-06
8.15481e-05
-3.04438e-06
8.08129e-05
-3.27134e-06
8.00021e-05
-3.4978e-06
7.91127e-05
-3.72395e-06
7.8142e-05
-3.95002e-06
7.70869e-05
-4.17625e-06
7.59442e-05
-4.40291e-06
7.47106e-05
-4.63037e-06
7.33828e-05
-4.85894e-06
7.19568e-05
-5.08902e-06
7.04289e-05
-5.32109e-06
6.87949e-05
-5.55564e-06
6.70505e-05
-5.79323e-06
6.51914e-05
-6.03445e-06
6.32127e-05
-6.27999e-06
6.11095e-05
-6.53055e-06
5.88769e-05
-6.78692e-06
5.65095e-05
-7.04993e-06
5.40016e-05
-7.32049e-06
5.13476e-05
-7.59955e-06
4.85414e-05
-7.88813e-06
4.55766e-05
-8.18733e-06
4.24465e-05
-8.49827e-06
3.91443e-05
-8.82216e-06
3.56624e-05
-9.16026e-06
3.19932e-05
-9.51387e-06
2.81286e-05
-9.88433e-06
2.40598e-05
-1.02731e-05
1.97777e-05
-1.06815e-05
1.52728e-05
1.05347e-05
-1.1111e-05
6.98957e-08
1.24487e-06
2.63503e-07
3.7591e-06
5.65468e-07
6.33297e-06
9.59038e-07
8.95772e-06
1.42631e-06
1.16211e-05
1.94867e-06
1.4308e-05
2.50728e-06
1.70018e-05
3.08377e-06
1.9685e-05
3.66087e-06
2.23407e-05
4.22308e-06
2.49536e-05
4.75723e-06
2.75107e-05
5.25297e-06
3.00026e-05
5.70298e-06
3.24237e-05
6.10308e-06
3.47723e-05
6.45204e-06
3.70506e-05
6.75123e-06
3.92639e-05
7.00411e-06
4.14203e-05
7.21564e-06
4.35292e-05
7.39163e-06
4.56007e-05
7.53812e-06
4.76444e-05
7.66086e-06
4.96684e-05
7.76496e-06
5.16789e-05
7.85457e-06
5.36797e-05
7.93281e-06
5.56716e-05
8.00177e-06
5.76533e-05
8.0626e-06
5.96209e-05
8.11567e-06
6.15683e-05
8.16073e-06
6.3488e-05
8.19711e-06
6.53716e-05
8.22388e-06
6.72096e-05
8.23993e-06
6.89924e-05
8.24416e-06
7.07106e-05
8.23546e-06
7.23549e-05
8.21285e-06
7.3917e-05
8.17548e-06
7.53893e-05
8.12269e-06
7.67655e-05
8.05399e-06
7.80403e-05
7.96911e-06
7.92101e-05
7.86801e-06
8.0273e-05
7.75086e-06
8.12283e-05
7.61808e-06
8.20773e-05
7.4703e-06
8.28228e-05
7.30836e-06
8.34689e-05
7.13328e-06
8.40212e-05
6.94624e-06
8.44865e-05
6.74855e-06
8.48723e-05
6.54164e-06
8.51868e-05
6.32694e-06
8.54383e-05
6.10593e-06
8.5635e-05
5.88004e-06
8.57848e-05
5.65064e-06
8.58947e-05
5.41897e-06
8.59707e-05
5.18616e-06
8.60178e-05
4.95316e-06
8.60394e-05
4.72076e-06
8.60378e-05
4.4896e-06
8.60136e-05
4.26012e-06
8.59663e-05
4.03262e-06
8.58944e-05
3.80728e-06
8.57951e-05
3.58413e-06
8.5665e-05
3.36313e-06
8.55002e-05
3.14418e-06
8.52963e-05
2.92711e-06
8.50491e-05
2.71175e-06
8.4754e-05
2.49791e-06
8.44068e-05
2.28539e-06
8.40034e-05
2.07403e-06
8.35401e-05
1.86366e-06
8.30135e-05
1.65411e-06
8.24201e-05
1.44526e-06
8.1757e-05
1.23695e-06
8.10213e-05
1.02903e-06
8.021e-05
8.2136e-07
7.93204e-05
6.13749e-07
7.83496e-05
4.05994e-07
7.72946e-05
1.97853e-07
7.61523e-05
-1.09558e-08
7.49194e-05
-2.20656e-07
7.35925e-05
-4.31701e-07
7.21678e-05
-6.44496e-07
7.06416e-05
-8.59496e-07
6.90099e-05
-1.07722e-06
6.72683e-05
-1.29823e-06
6.54124e-05
-1.52317e-06
6.34376e-05
-1.75274e-06
6.13391e-05
-1.98767e-06
5.91118e-05
-2.22878e-06
5.67506e-05
-2.47696e-06
5.42498e-05
-2.73314e-06
5.16038e-05
-2.99833e-06
4.88066e-05
-3.2736e-06
4.58518e-05
-3.5601e-06
4.2733e-05
-3.859e-06
3.94432e-05
-4.17159e-06
3.5975e-05
-4.49917e-06
3.23208e-05
-4.84314e-06
2.84725e-05
-5.20491e-06
2.44215e-05
-5.58597e-06
2.01588e-05
-5.98782e-06
1.56747e-05
1.09589e-05
-6.41202e-06
7.27487e-08
1.17212e-06
2.76213e-07
3.55564e-06
5.96439e-07
6.01275e-06
1.01798e-06
8.53617e-06
1.52407e-06
1.1115e-05
2.09689e-06
1.37352e-05
2.71808e-06
1.63806e-05
3.36928e-06
1.90338e-05
4.03278e-06
2.16772e-05
4.69215e-06
2.42942e-05
5.33294e-06
2.68699e-05
5.94314e-06
2.93924e-05
6.51358e-06
3.18533e-05
7.03813e-06
3.42478e-05
7.51365e-06
3.65751e-05
7.93981e-06
3.88378e-05
8.31861e-06
4.10415e-05
8.65388e-06
4.3194e-05
8.95065e-06
4.5304e-05
9.21454e-06
4.73805e-05
9.45116e-06
4.94318e-05
9.66566e-06
5.14644e-05
9.86242e-06
5.34829e-05
1.00448e-05
5.54893e-05
1.02151e-05
5.7483e-05
1.03747e-05
5.94613e-05
1.05239e-05
6.1419e-05
1.06626e-05
6.33493e-05
1.079e-05
6.52442e-05
1.09049e-05
6.70947e-05
1.10059e-05
6.88914e-05
1.10918e-05
7.06247e-05
1.11611e-05
7.22856e-05
1.12127e-05
7.38655e-05
1.12454e-05
7.53566e-05
1.12584e-05
7.67524e-05
1.12511e-05
7.80475e-05
1.12232e-05
7.9238e-05
1.11747e-05
8.03215e-05
1.11058e-05
8.12972e-05
1.10171e-05
8.21661e-05
1.09093e-05
8.29305e-05
1.07837e-05
8.35945e-05
1.06415e-05
8.41634e-05
1.04843e-05
8.46438e-05
1.03137e-05
8.50429e-05
1.01315e-05
8.5369e-05
9.93971e-06
8.56301e-05
9.74006e-06
8.58347e-05
9.5344e-06
8.59905e-05
9.32442e-06
8.61047e-05
9.11169e-06
8.61835e-05
8.89758e-06
8.62319e-05
8.68326e-06
8.62537e-05
8.46968e-06
8.62513e-05
8.25756e-06
8.62257e-05
8.04743e-06
8.61765e-05
7.83959e-06
8.61022e-05
7.6342e-06
8.60005e-05
7.43125e-06
8.58679e-05
7.23064e-06
8.57008e-05
7.03219e-06
8.54948e-05
6.83567e-06
8.52456e-05
6.64082e-06
8.49488e-05
6.44738e-06
8.46002e-05
6.25513e-06
8.41957e-05
6.06384e-06
8.37314e-05
5.87331e-06
8.3204e-05
5.68338e-06
8.261e-05
5.4939e-06
8.19465e-05
5.30473e-06
8.12104e-05
5.11573e-06
8.0399e-05
4.92675e-06
7.95094e-05
4.73764e-06
7.85387e-05
4.5482e-06
7.74841e-05
4.35821e-06
7.63423e-05
4.1674e-06
7.51102e-05
3.97544e-06
7.37844e-05
3.78198e-06
7.23613e-05
3.58661e-06
7.0837e-05
3.38884e-06
6.92076e-05
3.18815e-06
6.74689e-05
2.98393e-06
6.56166e-05
2.77553e-06
6.3646e-05
2.56223e-06
6.15524e-05
2.34325e-06
5.93308e-05
2.11772e-06
5.69761e-05
1.88474e-06
5.44828e-05
1.64333e-06
5.18452e-05
1.39242e-06
4.90575e-05
1.13089e-06
4.61134e-05
8.57554e-07
4.30064e-05
5.71153e-07
3.97296e-05
2.70357e-07
3.62758e-05
-4.62258e-08
3.26374e-05
-3.80013e-07
2.88063e-05
-7.32551e-07
2.47741e-05
-1.10539e-06
2.05316e-05
-1.50014e-06
1.60694e-05
1.13772e-05
-1.91844e-06
7.45824e-08
1.09754e-06
2.84982e-07
3.34524e-06
6.18778e-07
5.67895e-06
1.06201e-06
8.09294e-06
1.59925e-06
1.05777e-05
2.21377e-06
1.31206e-05
2.88799e-06
1.57064e-05
3.60388e-06
1.83179e-05
4.34364e-06
2.09375e-05
5.09028e-06
2.35475e-05
5.82829e-06
2.61319e-05
6.54427e-06
2.86765e-05
7.22734e-06
3.11702e-05
7.8695e-06
3.36056e-05
8.4657e-06
3.59789e-05
9.01378e-06
3.82897e-05
9.51413e-06
4.05412e-05
9.96927e-06
4.27388e-05
1.03833e-05
4.489e-05
1.07611e-05
4.70027e-05
1.11081e-05
4.90848e-05
1.14294e-05
5.11431e-05
1.17294e-05
5.31828e-05
1.20119e-05
5.52068e-05
1.22794e-05
5.72155e-05
1.25335e-05
5.92072e-05
1.27747e-05
6.11777e-05
1.30029e-05
6.31211e-05
1.32173e-05
6.50299e-05
1.34166e-05
6.68954e-05
1.35992e-05
6.87087e-05
1.37637e-05
7.04603e-05
1.39084e-05
7.2141e-05
1.40317e-05
7.37421e-05
1.41325e-05
7.52559e-05
1.42097e-05
7.66752e-05
1.42626e-05
7.79947e-05
1.42907e-05
7.92099e-05
1.4294e-05
8.03182e-05
1.42729e-05
8.13184e-05
1.42279e-05
8.22111e-05
1.416e-05
8.29984e-05
1.40706e-05
8.36839e-05
1.39612e-05
8.42728e-05
1.38338e-05
8.47712e-05
1.36902e-05
8.51865e-05
1.35328e-05
8.55264e-05
1.33636e-05
8.57993e-05
1.31851e-05
8.60133e-05
1.29992e-05
8.61763e-05
1.28082e-05
8.62957e-05
1.26137e-05
8.63779e-05
1.24176e-05
8.6428e-05
1.22211e-05
8.64502e-05
1.20255e-05
8.6447e-05
1.18314e-05
8.64197e-05
1.16397e-05
8.63682e-05
1.14505e-05
8.62914e-05
1.12641e-05
8.61869e-05
1.10804e-05
8.60516e-05
1.08993e-05
8.58819e-05
1.07205e-05
8.56736e-05
1.05437e-05
8.54224e-05
1.03687e-05
8.51239e-05
1.01951e-05
8.47738e-05
1.00225e-05
8.43682e-05
9.85081e-06
8.39031e-05
9.67972e-06
8.33751e-05
9.50905e-06
8.27807e-05
9.33865e-06
8.21169e-05
9.16837e-06
8.13807e-05
8.99809e-06
8.05693e-05
8.82766e-06
7.96798e-05
8.65693e-06
7.87095e-05
8.48572e-06
7.76553e-05
8.31381e-06
7.65142e-05
8.14094e-06
7.52831e-05
7.96681e-06
7.39586e-05
7.79103e-06
7.25371e-05
7.61318e-06
7.10149e-05
7.43278e-06
6.9388e-05
7.24927e-06
6.76525e-05
7.06204e-06
6.58038e-05
6.8704e-06
6.38376e-05
6.67361e-06
6.17492e-05
6.47085e-06
5.95336e-05
6.26122e-06
5.71857e-05
6.04377e-06
5.47002e-05
5.81747e-06
5.20715e-05
5.58122e-06
4.92937e-05
5.33384e-06
4.63608e-05
5.07409e-06
4.32661e-05
4.80064e-06
4.0003e-05
4.51211e-06
3.65643e-05
4.20704e-06
3.29425e-05
3.88389e-06
2.91295e-05
3.54108e-06
2.51169e-05
3.17697e-06
2.08957e-05
2.78985e-06
1.64565e-05
1.17891e-05
2.378e-06
7.54849e-08
1.02206e-06
2.90117e-07
3.13061e-06
6.33097e-07
5.33597e-06
1.09208e-06
7.63396e-06
1.65314e-06
1.00167e-05
2.30088e-06
1.24729e-05
3.01875e-06
1.49885e-05
3.7894e-06
1.75473e-05
4.59523e-06
2.01317e-05
5.41901e-06
2.27238e-05
6.24455e-06
2.53063e-05
7.05727e-06
2.78637e-05
7.8448e-06
3.03827e-05
8.59737e-06
3.28531e-05
9.30806e-06
3.52682e-05
9.97282e-06
3.76249e-05
1.05903e-05
3.99236e-05
1.11616e-05
4.21675e-05
1.16895e-05
4.43621e-05
1.21783e-05
4.65139e-05
1.26327e-05
4.86304e-05
1.30577e-05
5.07181e-05
1.34579e-05
5.27826e-05
1.38371e-05
5.48276e-05
1.41982e-05
5.68544e-05
1.45432e-05
5.88623e-05
1.48727e-05
6.08482e-05
1.51868e-05
6.2807e-05
1.54847e-05
6.47319e-05
1.57651e-05
6.6615e-05
1.60265e-05
6.84474e-05
1.62669e-05
7.02198e-05
1.64845e-05
7.19233e-05
1.66778e-05
7.35489e-05
1.68451e-05
7.50886e-05
1.69852e-05
7.65351e-05
1.70972e-05
7.78826e-05
1.71807e-05
7.91264e-05
1.72355e-05
8.02634e-05
1.72618e-05
8.1292e-05
1.72605e-05
8.22124e-05
1.72325e-05
8.30263e-05
1.71794e-05
8.3737e-05
1.7103e-05
8.43492e-05
1.70054e-05
8.48688e-05
1.6889e-05
8.53029e-05
1.67562e-05
8.56592e-05
1.66096e-05
8.59459e-05
1.64518e-05
8.6171e-05
1.62854e-05
8.63427e-05
1.61126e-05
8.64684e-05
1.59358e-05
8.65547e-05
1.57568e-05
8.6607e-05
1.55773e-05
8.66298e-05
1.53985e-05
8.66258e-05
1.52215e-05
8.65967e-05
1.5047e-05
8.65428e-05
1.48754e-05
8.6463e-05
1.47068e-05
8.63554e-05
1.45413e-05
8.62171e-05
1.43787e-05
8.60445e-05
1.42186e-05
8.58336e-05
1.40608e-05
8.55802e-05
1.39048e-05
8.52799e-05
1.37502e-05
8.49284e-05
1.35967e-05
8.45217e-05
1.34441e-05
8.40558e-05
1.32919e-05
8.35272e-05
1.31401e-05
8.29325e-05
1.29884e-05
8.22686e-05
1.28368e-05
8.15324e-05
1.2685e-05
8.07211e-05
1.25329e-05
7.98319e-05
1.23804e-05
7.8862e-05
1.22273e-05
7.78084e-05
1.20734e-05
7.66681e-05
1.19184e-05
7.54381e-05
1.17621e-05
7.41149e-05
1.1604e-05
7.26952e-05
1.14437e-05
7.11751e-05
1.12808e-05
6.9551e-05
1.11146e-05
6.78187e-05
1.09445e-05
6.59739e-05
1.07698e-05
6.40123e-05
1.05897e-05
6.19293e-05
1.04034e-05
5.97199e-05
1.02099e-05
5.73792e-05
1.00083e-05
5.49019e-05
9.79745e-06
5.22824e-05
9.57621e-06
4.9515e-05
9.34335e-06
4.65936e-05
9.09757e-06
4.35119e-05
8.8375e-06
4.02631e-05
8.56166e-06
3.68402e-05
8.26853e-06
3.32356e-05
7.95651e-06
2.94415e-05
7.62393e-06
2.54495e-05
7.26905e-06
2.12506e-05
6.89009e-06
1.68355e-05
1.2194e-05
6.4852e-06
7.55446e-08
9.46511e-07
2.91931e-07
2.91422e-06
6.40027e-07
4.98787e-06
1.10918e-06
7.1648e-06
1.6871e-06
9.43876e-06
2.35991e-06
1.18001e-05
3.1123e-06
1.42361e-05
3.92787e-06
1.67317e-05
4.78957e-06
1.927e-05
5.68026e-06
2.18331e-05
6.58334e-06
2.44033e-05
7.48339e-06
2.69637e-05
8.36677e-06
2.94993e-05
9.22212e-06
3.19977e-05
1.00407e-05
3.44496e-05
1.08167e-05
3.6849e-05
1.15467e-05
3.91936e-05
1.22304e-05
4.14839e-05
1.28691e-05
4.37233e-05
1.3466e-05
4.5917e-05
1.40253e-05
4.80711e-05
1.45516e-05
5.01919e-05
1.50493e-05
5.22849e-05
1.55225e-05
5.43543e-05
1.59744e-05
5.64025e-05
1.64071e-05
5.84296e-05
1.68218e-05
6.04335e-05
1.72187e-05
6.24101e-05
1.75972e-05
6.43535e-05
1.79559e-05
6.62562e-05
1.82933e-05
6.811e-05
1.86073e-05
6.99058e-05
1.8896e-05
7.16346e-05
1.91575e-05
7.32874e-05
1.93899e-05
7.48561e-05
1.9592e-05
7.63331e-05
1.97626e-05
7.7712e-05
1.9901e-05
7.8988e-05
2.0007e-05
8.01574e-05
2.00809e-05
8.12181e-05
2.01234e-05
8.217e-05
2.01356e-05
8.30141e-05
2.01191e-05
8.37534e-05
2.0076e-05
8.43923e-05
2.00086e-05
8.49363e-05
1.99194e-05
8.53921e-05
1.98113e-05
8.57673e-05
1.96872e-05
8.607e-05
1.955e-05
8.63082e-05
1.94026e-05
8.64902e-05
1.92476e-05
8.66234e-05
1.90877e-05
8.67146e-05
1.8925e-05
8.67698e-05
1.87614e-05
8.67934e-05
1.85984e-05
8.67887e-05
1.84373e-05
8.67578e-05
1.82788e-05
8.67012e-05
1.81235e-05
8.66183e-05
1.79717e-05
8.65073e-05
1.78232e-05
8.63656e-05
1.76779e-05
8.61898e-05
1.75355e-05
8.5976e-05
1.73956e-05
8.57201e-05
1.72578e-05
8.54178e-05
1.71215e-05
8.50647e-05
1.69864e-05
8.46567e-05
1.68522e-05
8.419e-05
1.67185e-05
8.36609e-05
1.65851e-05
8.30659e-05
1.64517e-05
8.24019e-05
1.63183e-05
8.16658e-05
1.61847e-05
8.08547e-05
1.60507e-05
7.99659e-05
1.59162e-05
7.89964e-05
1.57811e-05
7.79435e-05
1.56451e-05
7.68041e-05
1.55079e-05
7.55752e-05
1.53693e-05
7.42535e-05
1.52289e-05
7.28356e-05
1.50863e-05
7.13178e-05
1.49408e-05
6.96964e-05
1.4792e-05
6.79675e-05
1.46392e-05
6.61268e-05
1.44816e-05
6.41699e-05
1.43184e-05
6.20924e-05
1.41488e-05
5.98895e-05
1.39717e-05
5.75562e-05
1.37862e-05
5.50874e-05
1.35911e-05
5.24775e-05
1.33852e-05
4.97209e-05
1.31672e-05
4.68116e-05
1.29357e-05
4.37433e-05
1.26894e-05
4.05094e-05
1.24267e-05
3.71029e-05
1.21459e-05
3.35163e-05
1.18455e-05
2.97419e-05
1.15236e-05
2.57714e-05
1.11784e-05
2.15958e-05
1.08081e-05
1.72058e-05
1.25914e-05
1.04107e-05
7.48499e-08
8.71661e-07
2.90741e-07
2.69833e-06
6.40215e-07
4.6384e-06
1.11435e-06
6.69067e-06
1.70258e-06
8.85053e-06
2.39265e-06
1.111e-05
3.17073e-06
1.3458e-05
4.02158e-06
1.58808e-05
4.929e-06
1.83625e-05
5.87624e-06
2.08858e-05
6.84665e-06
2.34329e-05
7.82426e-06
2.59861e-05
8.79444e-06
2.85291e-05
9.74446e-06
3.10477e-05
1.06639e-05
3.35301e-05
1.15451e-05
3.59679e-05
1.23829e-05
3.83557e-05
1.3175e-05
4.06918e-05
1.39213e-05
4.2977e-05
1.46239e-05
4.52145e-05
1.52858e-05
4.74091e-05
1.59113e-05
4.95664e-05
1.65045e-05
5.16916e-05
1.70696e-05
5.37892e-05
1.761e-05
5.58622e-05
1.8128e-05
5.79116e-05
1.86253e-05
5.99362e-05
1.91023e-05
6.19331e-05
1.95587e-05
6.38971e-05
1.99932e-05
6.58217e-05
2.04044e-05
6.76989e-05
2.079e-05
6.95202e-05
2.1148e-05
7.12766e-05
2.14764e-05
7.29591e-05
2.1773e-05
7.45595e-05
2.20363e-05
7.60698e-05
2.2265e-05
7.74834e-05
2.24582e-05
7.87948e-05
2.26155e-05
8e-05
2.27372e-05
8.10964e-05
2.28239e-05
8.20833e-05
2.28768e-05
8.29613e-05
2.28975e-05
8.37327e-05
2.28882e-05
8.44016e-05
2.28513e-05
8.49731e-05
2.27898e-05
8.54537e-05
2.27066e-05
8.58505e-05
2.2605e-05
8.61716e-05
2.24882e-05
8.6425e-05
2.23595e-05
8.66189e-05
2.22218e-05
8.6761e-05
2.20781e-05
8.68584e-05
2.19308e-05
8.6917e-05
2.17822e-05
8.6942e-05
2.16339e-05
8.6937e-05
2.14875e-05
8.69043e-05
2.13438e-05
8.68449e-05
2.12036e-05
8.67585e-05
2.10672e-05
8.66438e-05
2.09345e-05
8.64983e-05
2.08054e-05
8.63189e-05
2.06796e-05
8.61018e-05
2.05566e-05
8.58431e-05
2.0436e-05
8.55384e-05
2.03171e-05
8.51835e-05
2.01997e-05
8.47742e-05
2.00832e-05
8.43065e-05
1.99674e-05
8.37768e-05
1.98519e-05
8.31815e-05
1.97364e-05
8.25173e-05
1.96209e-05
8.17813e-05
1.95052e-05
8.09705e-05
1.9389e-05
8.0082e-05
1.92724e-05
7.91131e-05
1.9155e-05
7.80609e-05
1.90367e-05
7.69224e-05
1.89173e-05
7.56947e-05
1.87964e-05
7.43744e-05
1.86736e-05
7.29583e-05
1.85485e-05
7.14429e-05
1.84206e-05
6.98243e-05
1.82893e-05
6.80988e-05
1.81538e-05
6.62622e-05
1.80134e-05
6.43103e-05
1.78673e-05
6.22386e-05
1.77145e-05
6.00423e-05
1.75541e-05
5.77167e-05
1.73849e-05
5.52566e-05
1.72058e-05
5.26566e-05
1.70155e-05
4.99112e-05
1.68127e-05
4.70144e-05
1.6596e-05
4.396e-05
1.63638e-05
4.07416e-05
1.61145e-05
3.73521e-05
1.58466e-05
3.37843e-05
1.55581e-05
3.00304e-05
1.52474e-05
2.60821e-05
1.49124e-05
2.19308e-05
1.45512e-05
1.7567e-05
1.29808e-05
1.41618e-05
7.34889e-08
7.98172e-07
2.86866e-07
2.48495e-06
6.34318e-07
4.29095e-06
1.10865e-06
6.21634e-06
1.70107e-06
8.25812e-06
2.40104e-06
1.041e-05
3.19632e-06
1.26628e-05
4.07307e-06
1.50041e-05
5.01617e-06
1.74194e-05
6.00958e-06
1.98924e-05
7.03691e-06
2.24055e-05
8.08197e-06
2.4941e-05
9.12945e-06
2.74817e-05
1.01655e-05
3.00117e-05
1.11782e-05
3.25174e-05
1.21581e-05
3.4988e-05
1.30983e-05
3.74155e-05
1.39947e-05
3.97955e-05
1.48454e-05
4.21262e-05
1.5651e-05
4.44089e-05
1.64136e-05
4.66465e-05
1.71366e-05
4.88435e-05
1.78238e-05
5.10045e-05
1.84791e-05
5.31339e-05
1.91061e-05
5.52352e-05
1.97075e-05
5.73101e-05
2.02853e-05
5.93584e-05
2.08403e-05
6.13781e-05
2.13724e-05
6.3365e-05
2.18807e-05
6.53134e-05
2.23636e-05
6.7216e-05
2.28192e-05
6.90646e-05
2.32451e-05
7.08507e-05
2.36391e-05
7.25651e-05
2.3999e-05
7.41995e-05
2.4323e-05
7.57458e-05
2.46095e-05
7.71968e-05
2.48576e-05
7.85468e-05
2.50666e-05
7.9791e-05
2.52366e-05
8.09265e-05
2.53681e-05
8.19518e-05
2.54623e-05
8.2867e-05
2.55209e-05
8.36741e-05
2.5546e-05
8.43764e-05
2.55404e-05
8.49787e-05
2.55071e-05
8.5487e-05
2.54492e-05
8.59084e-05
2.53704e-05
8.62504e-05
2.52741e-05
8.65213e-05
2.51639e-05
8.67291e-05
2.50432e-05
8.68818e-05
2.4915e-05
8.69865e-05
2.47824e-05
8.70497e-05
2.46478e-05
8.70767e-05
2.45132e-05
8.70716e-05
2.43802e-05
8.70372e-05
2.42501e-05
8.6975e-05
2.41237e-05
8.68849e-05
2.40013e-05
8.67661e-05
2.38832e-05
8.66164e-05
2.37691e-05
8.6433e-05
2.36587e-05
8.62122e-05
2.35515e-05
8.59503e-05
2.34471e-05
8.56428e-05
2.33448e-05
8.52857e-05
2.32443e-05
8.48748e-05
2.31449e-05
8.44059e-05
2.30462e-05
8.38754e-05
2.29481e-05
8.32796e-05
2.28501e-05
8.26153e-05
2.27521e-05
8.18793e-05
2.26539e-05
8.10687e-05
2.25553e-05
8.01806e-05
2.24562e-05
7.92122e-05
2.23564e-05
7.81607e-05
2.22557e-05
7.70231e-05
2.21538e-05
7.57965e-05
2.20505e-05
7.44777e-05
2.19453e-05
7.30635e-05
2.18378e-05
7.15504e-05
2.17274e-05
6.99347e-05
2.16136e-05
6.82127e-05
2.14955e-05
6.63803e-05
2.13724e-05
6.44334e-05
2.12435e-05
6.23675e-05
2.11078e-05
6.01781e-05
2.09642e-05
5.78603e-05
2.08115e-05
5.54092e-05
2.06487e-05
5.28194e-05
2.04743e-05
5.00855e-05
2.0287e-05
4.72017e-05
2.00853e-05
4.41618e-05
1.98676e-05
4.09593e-05
1.96322e-05
3.75875e-05
1.93774e-05
3.40391e-05
1.91014e-05
3.03064e-05
1.88022e-05
2.63813e-05
1.84779e-05
2.22551e-05
1.81263e-05
1.79186e-05
1.33617e-05
1.77454e-05
7.15492e-08
7.26623e-07
2.80628e-07
2.27587e-06
6.23011e-07
3.94856e-06
1.0932e-06
5.74615e-06
1.68415e-06
7.66716e-06
2.38711e-06
9.70709e-06
3.19153e-06
1.18583e-05
4.08513e-06
1.41105e-05
5.05408e-06
1.64505e-05
6.08333e-06
1.88632e-05
7.15704e-06
2.13318e-05
8.25916e-06
2.38389e-05
9.37399e-06
2.63668e-05
1.04868e-05
2.88988e-05
1.15846e-05
3.14197e-05
1.26562e-05
3.39164e-05
1.36929e-05
3.63787e-05
1.46888e-05
3.87996e-05
1.56404e-05
4.11747e-05
1.65464e-05
4.35029e-05
1.74077e-05
4.57852e-05
1.82266e-05
4.80245e-05
1.90065e-05
5.02246e-05
1.97508e-05
5.23896e-05
2.04633e-05
5.45228e-05
2.11468e-05
5.66266e-05
2.18035e-05
5.87017e-05
2.24348e-05
6.07468e-05
2.30409e-05
6.27589e-05
2.36212e-05
6.47331e-05
2.41742e-05
6.66629e-05
2.46981e-05
6.85407e-05
2.51906e-05
7.03582e-05
2.56493e-05
7.21065e-05
2.60719e-05
7.37769e-05
2.64562e-05
7.53614e-05
2.68006e-05
7.68525e-05
2.71037e-05
7.82437e-05
2.73648e-05
7.95299e-05
2.75836e-05
8.07076e-05
2.77608e-05
8.17746e-05
2.78973e-05
8.27306e-05
2.79947e-05
8.35767e-05
2.80553e-05
8.43158e-05
2.80818e-05
8.49522e-05
2.80774e-05
8.54915e-05
2.80455e-05
8.59403e-05
2.79899e-05
8.63061e-05
2.79143e-05
8.65969e-05
2.78226e-05
8.68208e-05
2.77186e-05
8.69858e-05
2.76056e-05
8.70994e-05
2.7487e-05
8.71683e-05
2.73655e-05
8.71982e-05
2.72436e-05
8.71936e-05
2.7123e-05
8.71578e-05
2.70052e-05
8.70927e-05
2.68913e-05
8.69989e-05
2.67817e-05
8.68757e-05
2.66768e-05
8.67214e-05
2.65764e-05
8.65334e-05
2.64802e-05
8.63084e-05
2.63877e-05
8.60427e-05
2.62985e-05
8.57321e-05
2.62119e-05
8.53724e-05
2.61273e-05
8.49594e-05
2.60442e-05
8.4489e-05
2.59622e-05
8.39574e-05
2.58808e-05
8.3361e-05
2.57998e-05
8.26963e-05
2.57188e-05
8.19602e-05
2.56378e-05
8.11497e-05
2.55565e-05
8.02619e-05
2.54747e-05
7.9294e-05
2.53923e-05
7.82431e-05
2.5309e-05
7.71064e-05
2.52246e-05
7.58809e-05
2.51388e-05
7.45636e-05
2.50511e-05
7.31512e-05
2.49611e-05
7.16404e-05
2.48683e-05
7.00276e-05
2.47719e-05
6.83091e-05
2.46713e-05
6.64809e-05
2.45657e-05
6.4539e-05
2.44541e-05
6.24791e-05
2.43355e-05
6.02966e-05
2.42089e-05
5.79869e-05
2.4073e-05
5.5545e-05
2.39267e-05
5.29658e-05
2.37684e-05
5.02438e-05
2.35969e-05
4.73732e-05
2.34105e-05
4.43482e-05
2.32076e-05
4.11622e-05
2.29864e-05
3.78086e-05
2.27452e-05
3.42803e-05
2.2482e-05
3.05696e-05
2.21948e-05
2.66685e-05
2.18815e-05
2.25684e-05
2.154e-05
1.82601e-05
1.37337e-05
2.1168e-05
6.91176e-08
6.57505e-07
2.72349e-07
2.07264e-06
6.06973e-07
3.61394e-06
1.06911e-06
5.28401e-06
1.65346e-06
7.08282e-06
2.35302e-06
9.00753e-06
3.159e-06
1.10524e-05
4.0608e-06
1.32087e-05
5.04606e-06
1.54652e-05
6.10095e-06
1.78083e-05
7.2105e-06
2.02223e-05
8.35906e-06
2.26903e-05
9.53091e-06
2.5195e-05
1.07108e-05
2.77189e-05
1.18848e-05
3.02457e-05
1.30403e-05
3.27609e-05
1.4167e-05
3.5252e-05
1.52572e-05
3.77094e-05
1.63055e-05
4.01264e-05
1.73089e-05
4.24994e-05
1.82668e-05
4.48273e-05
1.91803e-05
4.7111e-05
2.00518e-05
4.93532e-05
2.08844e-05
5.1557e-05
2.16814e-05
5.37257e-05
2.2446e-05
5.5862e-05
2.31807e-05
5.7967e-05
2.38871e-05
6.00404e-05
2.45658e-05
6.20802e-05
2.52166e-05
6.40823e-05
2.58384e-05
6.60411e-05
2.64294e-05
6.79497e-05
2.69875e-05
6.98001e-05
2.751e-05
7.15839e-05
2.79947e-05
7.32923e-05
2.84391e-05
7.4917e-05
2.88414e-05
7.64502e-05
2.91999e-05
7.78852e-05
2.95137e-05
7.92161e-05
2.97823e-05
8.04389e-05
3.00061e-05
8.15508e-05
3.01859e-05
8.25508e-05
3.03233e-05
8.34393e-05
3.04205e-05
8.42186e-05
3.04803e-05
8.48924e-05
3.05058e-05
8.54659e-05
3.05007e-05
8.59453e-05
3.04689e-05
8.63379e-05
3.04145e-05
8.66513e-05
3.03416e-05
8.68937e-05
3.02542e-05
8.70732e-05
3.01562e-05
8.71974e-05
3.00512e-05
8.72733e-05
2.99422e-05
8.73072e-05
2.98319e-05
8.73038e-05
2.97226e-05
8.72671e-05
2.9616e-05
8.71993e-05
2.95134e-05
8.71016e-05
2.94153e-05
8.69737e-05
2.93223e-05
8.68144e-05
2.92343e-05
8.66214e-05
2.91511e-05
8.63917e-05
2.90722e-05
8.61216e-05
2.89971e-05
8.58072e-05
2.89251e-05
8.54444e-05
2.88556e-05
8.50288e-05
2.87881e-05
8.45565e-05
2.87219e-05
8.40235e-05
2.86568e-05
8.34262e-05
2.85922e-05
8.27609e-05
2.85279e-05
8.20245e-05
2.84637e-05
8.1214e-05
2.83993e-05
8.03263e-05
2.83346e-05
7.93587e-05
2.82693e-05
7.83084e-05
2.82033e-05
7.71724e-05
2.81362e-05
7.5948e-05
2.80677e-05
7.4632e-05
2.79975e-05
7.32214e-05
2.7925e-05
7.17129e-05
2.78497e-05
7.01029e-05
2.77709e-05
6.83879e-05
2.76878e-05
6.6564e-05
2.75996e-05
6.46272e-05
2.75054e-05
6.25733e-05
2.74042e-05
6.03979e-05
2.72947e-05
5.80964e-05
2.71758e-05
5.56639e-05
2.70462e-05
5.30954e-05
2.69043e-05
5.03856e-05
2.67488e-05
4.75287e-05
2.6578e-05
4.4519e-05
2.63902e-05
4.135e-05
2.61836e-05
3.80153e-05
2.59563e-05
3.45076e-05
2.57063e-05
3.08197e-05
2.54314e-05
2.69433e-05
2.51296e-05
2.28702e-05
2.47986e-05
1.85911e-05
1.40963e-05
2.4436e-05
6.62789e-08
5.91226e-07
2.62348e-07
1.87657e-06
5.86884e-07
3.28941e-06
1.03754e-06
4.83335e-06
1.61067e-06
6.5097e-06
2.301e-06
8.31719e-06
3.10153e-06
1.02518e-05
4.00337e-06
1.23069e-05
4.9958e-06
1.44728e-05
6.06638e-06
1.67377e-05
7.20126e-06
1.90874e-05
8.38554e-06
2.15061e-05
9.60378e-06
2.39767e-05
1.08406e-05
2.64821e-05
1.20812e-05
2.90051e-05
1.33122e-05
3.153e-05
1.45217e-05
3.40425e-05
1.57001e-05
3.65309e-05
1.68404e-05
3.89862e-05
1.79378e-05
4.14021e-05
1.89898e-05
4.37752e-05
1.99963e-05
4.61046e-05
2.09584e-05
4.8391e-05
2.18786e-05
5.06368e-05
2.27598e-05
5.28445e-05
2.36051e-05
5.50167e-05
2.44172e-05
5.7155e-05
2.51978e-05
5.92598e-05
2.59483e-05
6.13298e-05
2.66686e-05
6.3362e-05
2.73581e-05
6.53517e-05
2.80152e-05
6.72926e-05
2.86379e-05
6.91775e-05
2.92236e-05
7.09981e-05
2.97699e-05
7.2746e-05
3.02743e-05
7.44126e-05
3.07346e-05
7.59899e-05
3.1149e-05
7.74708e-05
3.15161e-05
7.8849e-05
3.18355e-05
8.01196e-05
3.2107e-05
8.12793e-05
3.23314e-05
8.23263e-05
3.25102e-05
8.32605e-05
3.26454e-05
8.40834e-05
3.27397e-05
8.47981e-05
3.27964e-05
8.54092e-05
3.28192e-05
8.59225e-05
3.28122e-05
8.63448e-05
3.27797e-05
8.66838e-05
3.27261e-05
8.69474e-05
3.26556e-05
8.71436e-05
3.25725e-05
8.72805e-05
3.24807e-05
8.73652e-05
3.23836e-05
8.74042e-05
3.22844e-05
8.74031e-05
3.21856e-05
8.7366e-05
3.20891e-05
8.72958e-05
3.19965e-05
8.71942e-05
3.19087e-05
8.70614e-05
3.18263e-05
8.68968e-05
3.17495e-05
8.66982e-05
3.1678e-05