# Probe 0 (0.1445 0 0.0045)
# Time        0            
0.0001        2565.48      
0.0002        -10.2141     
0.0003        -0.180716    
0.0004        -0.118391    
0.0005        -0.0914765   
0.0006        -0.0738089   
0.0007        -0.0614188   
0.0008        -0.0521366   
0.0009        -0.0448578   
0.001         -0.0390507   
0.0011        -0.0341901   
0.0012        -0.030095    
0.0013        -0.0265603   
0.0014        -0.0234963   
0.0015        -0.020794    
0.0016        -0.0183817   
0.0017        -0.0162377   
0.0018        -0.0142994   
0.0019        -0.0125353   
0.002         -0.0109219   
0.0021        -0.00943341  
0.0022        -0.008062    
0.0023        -0.00678742  
0.0024        -0.00560301  
0.0025        -0.00449472  
0.0026        -0.00345781  
0.0027        -0.0024826   
0.0028        -0.00156506  
0.0029        -0.000698182 
0.003         0.00012095   
0.0031        0.000897548  
0.0032        0.00163383   
0.0033        0.00233435   
0.0034        0.00300046   
0.0035        0.00363605   
0.0036        0.00424262   
0.0037        0.00482207   
0.0038        0.00537577   
0.0039        0.00590687   
0.004         0.00641489   
0.0041        0.00690281   
0.0042        0.00737053   
0.0043        0.00782058   
0.0044        0.00825283   
0.0045        0.00866936   
0.0046        0.00907001   
0.0047        0.00945638   
0.0048        0.00982847   
0.0049        0.0101881    
0.005         0.0105349    
0.0051        0.0108701    
0.0052        0.0111938    
0.0053        0.0115071    
0.0054        0.0118099    
0.0055        0.0121036    
0.0056        0.0123874    
0.0057        0.0126628    
0.0058        0.0129296    
0.0059        0.0131888    
0.006         0.0134396    
0.0061        0.0136836    
0.0062        0.0139202    
0.0063        0.0141504    
0.0064        0.0143738    
0.0065        0.014593     
0.0066        0.0148043    
0.0067        0.0150107    
0.0068        0.0152105    
0.0069        0.015406     
0.007         0.0155955    
0.0071        0.0157812    
0.0072        0.0159616    
0.0073        0.0161377    
0.0074        0.0163093    
0.0075        0.0164771    
0.0076        0.0166405    
0.0077        0.0168004    
0.0078        0.0169563    
0.0079        0.017109     
0.008         0.0172579    
0.0081        0.0174038    
0.0082        0.0175462    
0.0083        0.0176858    
0.0084        0.0178222    
0.0085        0.0179559    
0.0086        0.0180875    
0.0087        0.0182158    
0.0088        0.0183413    
0.0089        0.0184645    
0.009         0.0185854    
0.0091        0.0187037    
0.0092        0.0188198    
0.0093        0.0189338    
0.0094        0.0190455    
0.0095        0.0191555    
0.0096        0.0192633    
0.0097        0.0193693    
0.0098        0.0194733    
0.0099        0.0195757    
0.01          0.0196761    
0.0101        0.019775     
0.0102        0.0198722    
0.0103        0.0199679    
0.0104        0.020062     
0.0105        0.0201548    
0.0106        0.0202459    
0.0107        0.0203359    
0.0108        0.0204243    
0.0109        0.0205116    
0.011         0.0205974    
0.0111        0.0206822    
0.0112        0.0207657    
0.0113        0.020848     
0.0114        0.0209293    
0.0115        0.0210095    
0.0116        0.0210885    
0.0117        0.0211666    
0.0118        0.0212436    
0.0119        0.0213196    
0.012         0.0213948    
0.0121        0.021469     
0.0122        0.0215422    
0.0123        0.0216147    
0.0124        0.0216863    
0.0125        0.021757     
0.0126        0.0218269    
0.0127        0.021896     
0.0128        0.0219644    
0.0129        0.0220321    
0.013         0.0220989    
0.0131        0.0221652    
0.0132        0.0222307    
0.0133        0.0222955    
0.0134        0.0223597    
0.0135        0.0224233    
0.0136        0.0224862    
0.0137        0.0225486    
0.0138        0.0226102    
0.0139        0.0226715    
0.014         0.022732     
0.0141        0.0227921    
0.0142        0.0228516    
0.0143        0.0229107    
0.0144        0.0229691    
0.0145        0.0230271    
0.0146        0.0230847    
0.0147        0.0231417    
0.0148        0.0231982    
0.0149        0.0232531    
0.015         0.0233087    
0.0151        0.023364     
0.0152        0.023419     
0.0153        0.0234733    
0.0154        0.0235274    
0.0155        0.0235811    
0.0156        0.0236343    
0.0157        0.0236873    
0.0158        0.0237398    
0.0159        0.023792     
0.016         0.0238439    
0.0161        0.0238952    
0.0162        0.0239464    
0.0163        0.0239973    
0.0164        0.0240477    
0.0165        0.024098     
0.0166        0.0241478    
0.0167        0.0241974    
0.0168        0.0242466    
0.0169        0.0242957    
0.017         0.0243443    
0.0171        0.0243928    
0.0172        0.0244409    
0.0173        0.0244888    
0.0174        0.0245364    
0.0175        0.0245838    
0.0176        0.024631     
0.0177        0.0246778    
0.0178        0.0247244    
0.0179        0.0247707    
0.018         0.024817     
0.0181        0.0248629    
0.0182        0.0249085    
0.0183        0.024954     
0.0184        0.0249993    
0.0185        0.0250444    
0.0186        0.025089     
0.0187        0.0251339    
0.0188        0.0251781    
0.0189        0.0252226    
0.019         0.0252664    
0.0191        0.0253105    
0.0192        0.0253539    
0.0193        0.0253976    
0.0194        0.0254406    
0.0195        0.025484     
0.0196        0.0255266    
0.0197        0.0255696    
0.0198        0.025612     
0.0199        0.0256544    
0.02          0.0256968    
0.0201        0.0257388    
0.0202        0.0257808    
0.0203        0.0258225    
0.0204        0.025864     
0.0205        0.0259056    
0.0206        0.0259467    
0.0207        0.025988     
0.0208        0.0260288    
0.0209        0.0260696    
0.021         0.0261104    
0.0211        0.0261509    
0.0212        0.0261912    
0.0213        0.0262315    
0.0214        0.0262715    
0.0215        0.0263115    
0.0216        0.0263513    
0.0217        0.026391     
0.0218        0.0264304    
0.0219        0.0264699    
0.022         0.0265091    
0.0221        0.0265482    
0.0222        0.0265873    
0.0223        0.0266261    
0.0224        0.0266647    
0.0225        0.0267034    
0.0226        0.0267418    
0.0227        0.0267801    
0.0228        0.0268183    
0.0229        0.0268563    
0.023         0.0268943    
0.0231        0.0269321    
0.0232        0.0269698    
0.0233        0.0270073    
0.0234        0.0270447    
0.0235        0.027082     
0.0236        0.0271191    
0.0237        0.0271562    
0.0238        0.027193     
0.0239        0.0272298    
0.024         0.0272664    
0.0241        0.027303     
0.0242        0.0273393    
0.0243        0.0273756    
0.0244        0.0274117    
0.0245        0.0274478    
0.0246        0.0274835    
0.0247        0.0275194    
0.0248        0.0275548    
0.0249        0.0275904    
0.025         0.0276257    
0.0251        0.0276609    
0.0252        0.027696     
0.0253        0.0277309    
0.0254        0.0277658    
0.0255        0.0278005    
0.0256        0.0278349    
0.0257        0.0278695    
0.0258        0.0279037    
0.0259        0.0279378    
0.026         0.0279719    
0.0261        0.0280057    
0.0262        0.0280394    
0.0263        0.0280732    
0.0264        0.0281065    
0.0265        0.0281398    
0.0266        0.0281731    
0.0267        0.0282061    
0.0268        0.0282389    
0.0269        0.0282718    
0.027         0.0283043    
0.0271        0.0283369    
0.0272        0.0283692    
0.0273        0.0284014    
0.0274        0.0284334    
0.0275        0.0284654    
0.0276        0.0284971    
0.0277        0.0285288    
0.0278        0.0285602    
0.0279        0.0285916    
0.028         0.0286227    
0.0281        0.0286538    
0.0282        0.0286847    
0.0283        0.0287155    
0.0284        0.028746     
0.0285        0.0287766    
0.0286        0.0288068    
0.0287        0.028837     
0.0288        0.028867     
0.0289        0.0288969    
0.029         0.0289266    
0.0291        0.0289562    
0.0292        0.0289855    
0.0293        0.0290149    
0.0294        0.0290439    
0.0295        0.029073     
0.0296        0.0291017    
0.0297        0.0291304    
0.0298        0.0291589    
0.0299        0.0291873    
0.03          0.0292155    
0.0301        0.0292436    
0.0302        0.0292715    
0.0303        0.0292994    
0.0304        0.0293269    
0.0305        0.0293545    
0.0306        0.0293818    
0.0307        0.029409     
0.0308        0.029436     
0.0309        0.0294629    
0.031         0.0294896    
0.0311        0.0295163    
0.0312        0.0295427    
0.0313        0.0295691    
0.0314        0.0295952    
0.0315        0.0296213    
0.0316        0.0296471    
0.0317        0.029673     
0.0318        0.0296985    
0.0319        0.029724     
0.032         0.0297493    
0.0321        0.0297746    
0.0322        0.0297996    
0.0323        0.0298245    
0.0324        0.0298493    
0.0325        0.029874     
0.0326        0.0298984    
0.0327        0.0299229    
0.0328        0.0299471    
0.0329        0.0299712    
0.033         0.0299952    
0.0331        0.0300191    
0.0332        0.0300428    
0.0333        0.0300664    
0.0334        0.0300899    
0.0335        0.0301133    
0.0336        0.0301365    
0.0337        0.0301596    
0.0338        0.0301826    
0.0339        0.0302053    
0.034         0.0302282    
0.0341        0.0302509    
0.0342        0.0302733    
0.0343        0.0302958    
0.0344        0.030318     
0.0345        0.0303402    
0.0346        0.0303623    
0.0347        0.0303843    
0.0348        0.030406     
0.0349        0.0304278    
0.035         0.0304494    
0.0351        0.030471     
0.0352        0.0304924    
0.0353        0.0305137    
0.0354        0.0305348    
0.0355        0.030556     
0.0356        0.0305771    
0.0357        0.0305979    
0.0358        0.0306188    
0.0359        0.0306394    
0.036         0.0306601    
0.0361        0.0306807    
0.0362        0.0307011    
0.0363        0.0307213    
0.0364        0.0307417    
0.0365        0.0307619    
0.0366        0.0307818    
0.0367        0.0308021    
0.0368        0.0308216    
0.0369        0.0308417    
0.037         0.0308615    
0.0371        0.0308809    
0.0372        0.0309007    
0.0373        0.0309199    
0.0374        0.0309395    
0.0375        0.0309589    
0.0376        0.0309781    
0.0377        0.0309971    
0.0378        0.0310164    
0.0379        0.0310355    
0.038         0.0310543    
0.0381        0.031073     
0.0382        0.031092     
0.0383        0.0311108    
0.0384        0.0311294    
0.0385        0.0311478    
0.0386        0.0311665    
0.0387        0.031185     
0.0388        0.0312032    
0.0389        0.0312216    
0.039         0.03124      
0.0391        0.0312579    
0.0392        0.0312762    
0.0393        0.0312944    
0.0394        0.031312     
0.0395        0.0313302    
0.0396        0.0313481    
0.0397        0.0313656    
0.0398        0.0313835    
0.0399        0.0314013    
0.04          0.0314185    
0.0401        0.0314363    
0.0402        0.0314539    
0.0403        0.031471     
0.0404        0.0314886    
0.0405        0.0315061    
0.0406        0.0315229    
0.0407        0.0315404    
0.0408        0.0315576    
0.0409        0.0315744    
0.041         0.0315916    
0.0411        0.0316086    
0.0412        0.0316254    
0.0413        0.0316423    
0.0414        0.0316591    
0.0415        0.0316759    
0.0416        0.0316925    
0.0417        0.0317091    
0.0418        0.0317258    
0.0419        0.0317423    
0.042         0.0317587    
0.0421        0.0317752    
0.0422        0.0317916    
0.0423        0.0318078    
0.0424        0.0318242    
0.0425        0.0318403    
0.0426        0.0318565    
0.0427        0.0318726    
0.0428        0.0318886    
0.0429        0.0319047    
0.043         0.0319205    
0.0431        0.0319366    
0.0432        0.0319523    
0.0433        0.0319682    
0.0434        0.0319839    
0.0435        0.0319996    
0.0436        0.0320153    
0.0437        0.0320309    
0.0438        0.0320463    
0.0439        0.0320619    
0.044         0.0320772    
0.0441        0.0320928    
0.0442        0.0321081    
0.0443        0.0321235    
0.0444        0.0321387    
0.0445        0.0321539    
0.0446        0.0321689    
0.0447        0.0321841    
0.0448        0.0321992    
0.0449        0.0322141    
0.045         0.0322291    
0.0451        0.032244     
0.0452        0.0322588    
0.0453        0.0322737    
0.0454        0.0322885    
0.0455        0.0323031    
0.0456        0.0323179    
0.0457        0.0323325    
0.0458        0.032347     
0.0459        0.0323615    
0.046         0.032376     
0.0461        0.0323906    
0.0462        0.0324048    
0.0463        0.0324193    
0.0464        0.0324336    
0.0465        0.0324477    
0.0466        0.032462     
0.0467        0.0324761    
0.0468        0.0324902    
0.0469        0.0325042    
0.047         0.0325184    
0.0471        0.0325323    
0.0472        0.0325462    
0.0473        0.0325601    
0.0474        0.0325738    
0.0475        0.0325876    
0.0476        0.0326015    
0.0477        0.0326151    
0.0478        0.0326289    
0.0479        0.0326423    
0.048         0.032656     
0.0481        0.0326694    
0.0482        0.032683     
0.0483        0.0326964    
0.0484        0.0327098    
0.0485        0.0327231    
0.0486        0.0327364    
0.0487        0.0327497    
0.0488        0.0327627    
0.0489        0.0327761    
0.049         0.032789     
0.0491        0.0328023    
0.0492        0.0328151    
0.0493        0.0328283    
0.0494        0.0328411    
0.0495        0.0328541    
0.0496        0.0328668    
0.0497        0.0328797    
0.0498        0.0328924    
0.0499        0.0329052    
0.05          0.0329178    
0.0501        0.0329307    
0.0502        0.032943     
0.0503        0.0329557    
0.0504        0.0329682    
0.0505        0.0329806    
0.0506        0.0329932    
0.0507        0.0330054    
0.0508        0.0330179    
0.0509        0.0330301    
0.051         0.0330424    
0.0511        0.0330546    
0.0512        0.0330668    
0.0513        0.0330791    
0.0514        0.033091     
0.0515        0.0331032    
0.0516        0.0331151    
0.0517        0.0331272    
0.0518        0.0331391    
0.0519        0.033151     
0.052         0.0331628    
0.0521        0.0331747    
0.0522        0.0331865    
0.0523        0.0331983    
0.0524        0.0332099    
0.0525        0.0332216    
0.0526        0.0332333    
0.0527        0.0332449    
0.0528        0.0332563    
0.0529        0.0332679    
0.053         0.0332793    
0.0531        0.0332908    
0.0532        0.0333022    
0.0533        0.0333136    
0.0534        0.0333249    
0.0535        0.0333362    
0.0536        0.0333474    
0.0537        0.0333587    
0.0538        0.0333698    
0.0539        0.033381     
0.054         0.033392     
0.0541        0.0334032    
0.0542        0.0334141    
0.0543        0.0334252    
0.0544        0.0334361    
0.0545        0.033447     
0.0546        0.0334579    
0.0547        0.0334687    
0.0548        0.0334795    
0.0549        0.0334903    
0.055         0.033501     
0.0551        0.0335117    
0.0552        0.0335223    
0.0553        0.0335329    
0.0554        0.0335435    
0.0555        0.0335541    
0.0556        0.0335645    
0.0557        0.0335751    
0.0558        0.0335855    
0.0559        0.0335959    
0.056         0.0336063    
0.0561        0.0336167    
0.0562        0.0336269    
0.0563        0.0336372    
0.0564        0.0336474    
0.0565        0.0336577    
0.0566        0.0336678    
0.0567        0.033678     
0.0568        0.033688     
0.0569        0.0336981    
0.057         0.0337081    
0.0571        0.0337181    
0.0572        0.033728     
0.0573        0.033738     
0.0574        0.0337479    
0.0575        0.0337578    
0.0576        0.0337676    
0.0577        0.0337775    
0.0578        0.0337872    
0.0579        0.0337969    
0.058         0.0338066    
0.0581        0.0338164    
0.0582        0.0338259    
0.0583        0.0338356    
0.0584        0.0338451    
0.0585        0.0338547    
0.0586        0.0338641    
0.0587        0.0338737    
0.0588        0.0338832    
0.0589        0.0338927    
0.059         0.0339018    
0.0591        0.0339114    
0.0592        0.0339206    
0.0593        0.0339299    
0.0594        0.0339392    
0.0595        0.0339484    
0.0596        0.0339576    
0.0597        0.0339668    
0.0598        0.0339759    
0.0599        0.033985     
0.06          0.0339941    
0.0601        0.0340032    
0.0602        0.0340121    
0.0603        0.0340212    
0.0604        0.0340301    
0.0605        0.0340391    
0.0606        0.0340478    
0.0607        0.0340568    
0.0608        0.0340656    
0.0609        0.0340744    
0.061         0.0340832    
0.0611        0.034092     
0.0612        0.0341006    
0.0613        0.0341094    
0.0614        0.0341179    
0.0615        0.0341266    
0.0616        0.0341352    
0.0617        0.0341436    
0.0618        0.0341523    
0.0619        0.0341608    
0.062         0.0341693    
0.0621        0.0341778    
0.0622        0.0341862    
0.0623        0.0341946    
0.0624        0.0342029    
0.0625        0.0342113    
0.0626        0.0342195    
0.0627        0.0342279    
0.0628        0.0342361    
0.0629        0.0342444    
0.063         0.0342525    
0.0631        0.0342606    
0.0632        0.0342688    
0.0633        0.0342768    
0.0634        0.0342849    
0.0635        0.034293     
0.0636        0.0343009    
0.0637        0.034309     
0.0638        0.0343169    
0.0639        0.0343249    
0.064         0.0343328    
0.0641        0.0343407    
0.0642        0.0343486    
0.0643        0.0343565    
0.0644        0.0343642    
0.0645        0.0343721    
0.0646        0.0343798    
0.0647        0.0343876    
0.0648        0.0343952    
0.0649        0.034403     
0.065         0.0344105    
0.0651        0.0344182    
0.0652        0.0344259    
0.0653        0.0344334    
0.0654        0.0344408    
0.0655        0.0344485    
0.0656        0.0344558    
0.0657        0.0344635    
0.0658        0.034471     
0.0659        0.0344781    
0.066         0.0344856    
0.0661        0.034493     
0.0662        0.0345003    
0.0663        0.0345077    
0.0664        0.0345149    
0.0665        0.0345222    
0.0666        0.0345295    
0.0667        0.0345367    
0.0668        0.0345439    
0.0669        0.0345515    
0.067         0.0345578    
0.0671        0.0345653    
0.0672        0.0345728    
0.0673        0.0345791    
0.0674        0.0345866    
0.0675        0.0345939    
0.0676        0.0346002    
0.0677        0.0346075    
0.0678        0.0346148    
0.0679        0.0346211    
0.068         0.0346284    
0.0681        0.0346355    
0.0682        0.0346416    
0.0683        0.034649     
0.0684        0.0346559    
0.0685        0.034662     
0.0686        0.0346692    
0.0687        0.0346762    
0.0688        0.0346822    
0.0689        0.0346893    
0.069         0.0346962    
0.0691        0.0347022    
0.0692        0.0347092    
0.0693        0.0347161    
0.0694        0.0347219    
0.0695        0.034729     
0.0696        0.0347357    
0.0697        0.0347416    
0.0698        0.0347484    
0.0699        0.0347552    
0.07          0.0347609    
0.0701        0.0347677    
0.0702        0.034774     
0.0703        0.0347803    
0.0704        0.0347867    
0.0705        0.034793     
0.0706        0.0347993    
0.0707        0.0348055    
0.0708        0.0348118    
0.0709        0.034818     
0.071         0.0348242    
0.0711        0.0348303    
0.0712        0.0348365    
0.0713        0.0348426    
0.0714        0.0348487    
0.0715        0.0348547    
0.0716        0.0348608    
0.0717        0.0348669    
0.0718        0.0348729    
0.0719        0.0348789    
0.072         0.0348849    
0.0721        0.034891     
0.0722        0.0348967    
0.0723        0.0349027    
0.0724        0.0349086    
0.0725        0.0349145    
0.0726        0.0349203    
0.0727        0.0349261    
0.0728        0.0349319    
0.0729        0.0349376    
0.073         0.0349434    
0.0731        0.0349491    
0.0732        0.0349548    
0.0733        0.0349609    
0.0734        0.0349659    
0.0735        0.0349722    
0.0736        0.0349772    
0.0737        0.0349834    
0.0738        0.0349883    
0.0739        0.0349943    
0.074         0.0349998    
0.0741        0.0350054    
0.0742        0.0350108    
0.0743        0.0350167    
0.0744        0.0350216    
0.0745        0.0350272    
0.0746        0.0350328    
0.0747        0.035038     
0.0748        0.0350434    
0.0749        0.035049     
0.075         0.0350538    
0.0751        0.0350593    
0.0752        0.0350649    
0.0753        0.0350698    
0.0754        0.0350752    
0.0755        0.0350807    
0.0756        0.0350854    
0.0757        0.0350908    
0.0758        0.0350962    
0.0759        0.0351011    
0.076         0.0351062    
0.0761        0.0351116    
0.0762        0.0351162    
0.0763        0.0351215    
0.0764        0.0351267    
0.0765        0.0351314    
0.0766        0.0351366    
0.0767        0.0351418    
0.0768        0.0351461    
0.0769        0.0351515    
0.077         0.0351567    
0.0771        0.0351612    
0.0772        0.0351663    
0.0773        0.0351712    
0.0774        0.0351757    
0.0775        0.0351808    
0.0776        0.0351859    
0.0777        0.0351903    
0.0778        0.0351951    
0.0779        0.0352       
0.078         0.0352043    
0.0781        0.0352094    
0.0782        0.0352143    
0.0783        0.0352186    
0.0784        0.0352233    
0.0785        0.0352283    
0.0786        0.0352323    
0.0787        0.0352373    
0.0788        0.0352418    
0.0789        0.0352462    
0.079         0.0352509    
0.0791        0.0352557    
0.0792        0.0352597    
0.0793        0.0352643    
0.0794        0.0352688    
0.0795        0.0352733    
0.0796        0.0352777    
0.0797        0.035282     
0.0798        0.0352869    
0.0799        0.0352904    
0.08          0.0352952    
0.0801        0.0352997    
0.0802        0.0353035    
0.0803        0.0353082    
0.0804        0.0353123    
0.0805        0.0353164    
0.0806        0.0353209    
0.0807        0.0353252    
0.0808        0.035329     
0.0809        0.0353332    
0.081         0.0353378    
0.0811        0.0353416    
0.0812        0.0353456    
0.0813        0.0353502    
0.0814        0.0353537    
0.0815        0.035358     
0.0816        0.0353623    
0.0817        0.0353661    
0.0818        0.03537      
0.0819        0.0353744    
0.082         0.0353779    
0.0821        0.035382     
0.0822        0.0353862    
0.0823        0.0353898    
0.0824        0.0353937    
0.0825        0.0353979    
0.0826        0.0354016    
0.0827        0.0354054    
0.0828        0.0354095    
0.0829        0.0354131    
0.083         0.0354168    
0.0831        0.0354211    
0.0832        0.0354242    
0.0833        0.0354282    
0.0834        0.0354322    
0.0835        0.0354357    
0.0836        0.0354394    
0.0837        0.035443     
0.0838        0.0354466    
0.0839        0.0354502    
0.084         0.0354539    
0.0841        0.0354574    
0.0842        0.0354613    
0.0843        0.0354643    
0.0844        0.0354682    
0.0845        0.0354718    
0.0846        0.0354751    
0.0847        0.0354788    
0.0848        0.0354823    
0.0849        0.0354855    
0.085         0.0354892    
0.0851        0.0354928    
0.0852        0.0354958    
0.0853        0.0354995    
0.0854        0.0355028    
0.0855        0.035506     
0.0856        0.0355098    
0.0857        0.0355124    
0.0858        0.0355162    
0.0859        0.0355196    
0.086         0.0355227    
0.0861        0.0355259    
0.0862        0.0355294    
0.0863        0.0355321    
0.0864        0.0355357    
0.0865        0.0355389    
0.0866        0.0355419    
0.0867        0.0355455    
0.0868        0.0355481    
0.0869        0.0355514    
0.087         0.0355547    
0.0871        0.0355574    
0.0872        0.0355609    
0.0873        0.0355641    
0.0874        0.0355666    
0.0875        0.03557      
0.0876        0.035573     
0.0877        0.0355759    
0.0878        0.0355792    
0.0879        0.0355815    
0.088         0.0355849    
0.0881        0.0355878    
0.0882        0.0355911    
0.0883        0.0355932    
0.0884        0.0355966    
0.0885        0.0355996    
0.0886        0.0356016    
0.0887        0.0356049    
0.0888        0.0356077    
0.0889        0.0356107    
0.089         0.0356128    
0.0891        0.035616     
0.0892        0.0356188    
0.0893        0.0356216    
0.0894        0.035624     
0.0895        0.0356273    
0.0896        0.035629     
0.0897        0.0356321    
0.0898        0.035635     
0.0899        0.0356373    
0.09          0.0356406    
0.0901        0.0356422    
0.0902        0.0356453    
0.0903        0.0356479    
0.0904        0.0356508    
0.0905        0.0356527    
0.0906        0.0356556    
0.0907        0.0356581    
0.0908        0.035661     
0.0909        0.0356627    
0.091         0.0356657    
0.0911        0.0356681    
0.0912        0.0356706    
0.0913        0.0356729    
0.0914        0.0356756    
0.0915        0.0356773    
0.0916        0.0356801    
0.0917        0.0356828    
0.0918        0.0356842    
0.0919        0.0356871    
0.092         0.0356892    
0.0921        0.0356912    
0.0922        0.0356938    
0.0923        0.035696     
0.0924        0.0356988    
0.0925        0.0357       
0.0926        0.0357027    
0.0927        0.0357049    
0.0928        0.0357075    
0.0929        0.0357088    
0.093         0.0357114    
0.0931        0.0357136    
0.0932        0.0357161    
0.0933        0.0357175    
0.0934        0.03572      
0.0935        0.035722     
0.0936        0.0357244    
0.0937        0.0357257    
0.0938        0.0357288    
0.0939        0.0357293    
0.094         0.0357325    
0.0941        0.0357345    
0.0942        0.0357358    
0.0943        0.0357383    
0.0944        0.0357402    
0.0945        0.0357421    
0.0946        0.035744     
0.0947        0.0357461    
0.0948        0.0357475    
0.0949        0.0357496    
0.095         0.0357515    
0.0951        0.0357534    
0.0952        0.0357553    
0.0953        0.0357565    
0.0954        0.0357591    
0.0955        0.0357598    
0.0956        0.0357622    
0.0957        0.0357642    
0.0958        0.035765     
0.0959        0.0357674    
0.096         0.0357691    
0.0961        0.0357715    
0.0962        0.0357718    
0.0963        0.0357742    
0.0964        0.0357758    
0.0965        0.0357779    
0.0966        0.0357786    
0.0967        0.0357814    
0.0968        0.0357815    
0.0969        0.0357838    
0.097         0.0357854    
0.0971        0.0357875    
0.0972        0.0357879    
0.0973        0.03579      
0.0974        0.0357916    
0.0975        0.0357929    
0.0976        0.0357943    
0.0977        0.0357959    
0.0978        0.035797     
0.0979        0.0357985    
0.098         0.0358001    
0.0981        0.0358014    
0.0982        0.0358033    
0.0983        0.0358039    
0.0984        0.0358056    
0.0985        0.0358071    
0.0986        0.0358089    
0.0987        0.0358092    
0.0988        0.0358112    
0.0989        0.0358127    
0.099         0.0358134    
0.0991        0.035815     
0.0992        0.0358162    
0.0993        0.0358176    
0.0994        0.0358192    
0.0995        0.0358194    
0.0996        0.0358211    
0.0997        0.0358224    
0.0998        0.0358234    
0.0999        0.0358246    
0.1           0.0358263    
0.1001        0.0358262    
0.1002        0.035828     
0.1003        0.0358284    
0.1004        0.0358306    
0.1005        0.0358302    
0.1006        0.0358325    
0.1007        0.035833     
0.1008        0.0358339    
0.1009        0.035835     
0.101         0.0358363    
0.1011        0.0358369    
0.1012        0.0358381    
0.1013        0.0358389    
0.1014        0.0358396    
0.1015        0.0358414    
0.1016        0.0358407    
0.1017        0.0358425    
0.1018        0.0358434    
0.1019        0.0358441    
0.102         0.0358458    
0.1021        0.035845     
0.1022        0.0358467    
0.1023        0.0358478    
0.1024        0.0358481    
0.1025        0.0358494    
0.1026        0.03585      
0.1027        0.0358504    
0.1028        0.0358514    
0.1029        0.035852     
0.103         0.0358525    
0.1031        0.0358531    
0.1032        0.0358543    
0.1033        0.0358541    
0.1034        0.0358552    
0.1035        0.0358562    
0.1036        0.0358563    
0.1037        0.0358581    
0.1038        0.0358571    
0.1039        0.0358585    
0.104         0.0358592    
0.1041        0.035859     
0.1042        0.03586      
0.1043        0.0358607    
0.1044        0.0358606    
0.1045        0.0358613    
0.1046        0.0358615    
0.1047        0.0358628    
0.1048        0.0358621    
0.1049        0.0358633    
0.105         0.0358628    
0.1051        0.0358673    
0.1052        0.0358611    
0.1053        0.0358659    
0.1054        0.0358642    
0.1055        0.0358652    
0.1056        0.0358656    
0.1057        0.0358664    
0.1058        0.0358658    
0.1059        0.0358666    
0.106         0.0358662    
0.1061        0.0358671    
0.1062        0.0358665    
0.1063        0.0358679    
0.1064        0.035867     
0.1065        0.0358703    
0.1066        0.0358653    
0.1067        0.0358693    
0.1068        0.035867     
0.1069        0.0358707    