# Probe 0  0.1445 0 0.0045 
# Time        0            
0.0001         1.00336 0 0.000178373 
0.0002         0.974738 0 -0.00447897 
0.0003         0.974261 0 -0.00453329 
0.0004         0.973906 0 -0.00457958 
0.0005         0.97361 0 -0.00462128 
0.0006         0.973352 0 -0.00465999 
0.0007         0.97312 0 -0.00469663 
0.0008         0.972908 0 -0.00473155 
0.0009         0.972712 0 -0.0047651 
0.001          0.972529 0 -0.00479747 
0.0011         0.972356 0 -0.00482883 
0.0012         0.972192 0 -0.00485926 
0.0013         0.972037 0 -0.0048889 
0.0014         0.971887 0 -0.00491779 
0.0015         0.971744 0 -0.00494602 
0.0016         0.971607 0 -0.00497362 
0.0017         0.971474 0 -0.00500066 
0.0018         0.971345 0 -0.00502715 
0.0019         0.971221 0 -0.00505316 
0.002          0.9711 0 -0.00507868 
0.0021         0.970982 0 -0.00510377 
0.0022         0.970868 0 -0.00512844 
0.0023         0.970757 0 -0.00515272 
0.0024         0.970648 0 -0.00517663 
0.0025         0.970542 0 -0.0052002 
0.0026         0.970439 0 -0.00522342 
0.0027         0.970337 0 -0.00524634 
0.0028         0.970238 0 -0.00526896 
0.0029         0.970141 0 -0.0052913 
0.003          0.970045 0 -0.00531337 
0.0031         0.969952 0 -0.00533519 
0.0032         0.96986 0 -0.00535677 
0.0033         0.96977 0 -0.00537813 
0.0034         0.969681 0 -0.00539926 
0.0035         0.969594 0 -0.0054202 
0.0036         0.969508 0 -0.00544094 
0.0037         0.969424 0 -0.00546149 
0.0038         0.96934 0 -0.00548188 
0.0039         0.969258 0 -0.00550209 
0.004          0.969177 0 -0.00552215 
0.0041         0.969097 0 -0.00554207 
0.0042         0.969019 0 -0.00556184 
0.0043         0.968941 0 -0.00558149 
0.0044         0.968864 0 -0.00560101 
0.0045         0.968788 0 -0.00562042 
0.0046         0.968713 0 -0.00563971 
0.0047         0.968639 0 -0.00565891 
0.0048         0.968565 0 -0.00567801 
0.0049         0.968493 0 -0.00569702 
0.005          0.968421 0 -0.00571595 
0.0051         0.968349 0 -0.0057348 
0.0052         0.968279 0 -0.00575358 
0.0053         0.968209 0 -0.00577229 
0.0054         0.968139 0 -0.00579094 
0.0055         0.968071 0 -0.00580955 
0.0056         0.968003 0 -0.0058281 
0.0057         0.967935 0 -0.0058466 
0.0058         0.967868 0 -0.00586507 
0.0059         0.967801 0 -0.00588351 
0.006          0.967735 0 -0.00590191 
0.0061         0.967669 0 -0.00592029 
0.0062         0.967604 0 -0.00593865 
0.0063         0.967539 0 -0.005957 
0.0064         0.967475 0 -0.00597534 
0.0065         0.967411 0 -0.00599367 
0.0066         0.967347 0 -0.006012 
0.0067         0.967284 0 -0.00603033 
0.0068         0.967221 0 -0.00604866 
0.0069         0.967158 0 -0.00606701 
0.007          0.967096 0 -0.00608537 
0.0071         0.967034 0 -0.00610376 
0.0072         0.966972 0 -0.00612216 
0.0073         0.96691 0 -0.00614059 
0.0074         0.966849 0 -0.00615905 
0.0075         0.966788 0 -0.00617755 
0.0076         0.966727 0 -0.00619609 
0.0077         0.966667 0 -0.00621466 
0.0078         0.966606 0 -0.00623329 
0.0079         0.966546 0 -0.00625196 
0.008          0.966486 0 -0.00627069 
0.0081         0.966426 0 -0.00628948 
0.0082         0.966367 0 -0.00630832 
0.0083         0.966307 0 -0.00632724 
0.0084         0.966248 0 -0.00634622 
0.0085         0.966189 0 -0.00636528 
0.0086         0.96613 0 -0.00638441 
0.0087         0.966071 0 -0.00640362 
0.0088         0.966012 0 -0.00642292 
0.0089         0.965953 0 -0.00644231 
0.009          0.965895 0 -0.00646178 
0.0091         0.965836 0 -0.00648136 
0.0092         0.965778 0 -0.00650103 
0.0093         0.965719 0 -0.00652081 
0.0094         0.965661 0 -0.0065407 
0.0095         0.965603 0 -0.00656069 
0.0096         0.965544 0 -0.00658081 
0.0097         0.965486 0 -0.00660104 
0.0098         0.965428 0 -0.0066214 
0.0099         0.96537 0 -0.00664188 
0.01           0.965312 0 -0.0066625 
0.0101         0.965254 0 -0.00668326 
0.0102         0.965196 0 -0.00670415 
0.0103         0.965138 0 -0.00672519 
0.0104         0.965081 0 -0.00674638 
0.0105         0.965023 0 -0.00676773 
0.0106         0.964965 0 -0.00678923 
0.0107         0.964907 0 -0.00681089 
0.0108         0.964849 0 -0.00683272 
0.0109         0.964791 0 -0.00685473 
0.011          0.964733 0 -0.0068769 
0.0111         0.964675 0 -0.00689926 
0.0112         0.964617 0 -0.00692181 
0.0113         0.964559 0 -0.00694455 
0.0114         0.964501 0 -0.00696748 
0.0115         0.964443 0 -0.00699061 
0.0116         0.964385 0 -0.00701395 
0.0117         0.964327 0 -0.0070375 
0.0118         0.964269 0 -0.00706126 
0.0119         0.964211 0 -0.00708524 
0.012          0.964153 0 -0.00710945 
0.0121         0.964095 0 -0.00713389 
0.0122         0.964036 0 -0.00715857 
0.0123         0.963978 0 -0.00718349 
0.0124         0.96392 0 -0.00720866 
0.0125         0.963861 0 -0.00723408 
0.0126         0.963803 0 -0.00725976 
0.0127         0.963744 0 -0.00728571 
0.0128         0.963685 0 -0.00731192 
0.0129         0.963627 0 -0.00733841 
0.013          0.963568 0 -0.00736519 
0.0131         0.963509 0 -0.00739225 
0.0132         0.96345 0 -0.0074196 
0.0133         0.963392 0 -0.00744726 
0.0134         0.963333 0 -0.00747522 
0.0135         0.963274 0 -0.0075035 
0.0136         0.963214 0 -0.00753209 
0.0137         0.963155 0 -0.00756101 
0.0138         0.963096 0 -0.00759026 
0.0139         0.963037 0 -0.00761985 
0.014          0.962977 0 -0.00764978 
0.0141         0.962918 0 -0.00768006 
0.0142         0.962859 0 -0.0077107 
0.0143         0.962799 0 -0.0077417 
0.0144         0.96274 0 -0.00777308 
0.0145         0.96268 0 -0.00780483 
0.0146         0.96262 0 -0.00783696 
0.0147         0.962561 0 -0.00786949 
0.0148         0.962501 0 -0.00790241 
0.0149         0.962441 0 -0.00793573 
0.015          0.962381 0 -0.00796947 
0.0151         0.962321 0 -0.00800362 
0.0152         0.962261 0 -0.0080382 
0.0153         0.962202 0 -0.0080732 
0.0154         0.962142 0 -0.00810865 
0.0155         0.962082 0 -0.00814454 
0.0156         0.962022 0 -0.00818087 
0.0157         0.961962 0 -0.00821767 
0.0158         0.961901 0 -0.00825493 
0.0159         0.961841 0 -0.00829266 
0.016          0.961781 0 -0.00833086 
0.0161         0.961721 0 -0.00836955 
0.0162         0.961661 0 -0.00840873 
0.0163         0.961601 0 -0.00844841 
0.0164         0.961541 0 -0.00848858 
0.0165         0.961481 0 -0.00852927 
0.0166         0.961422 0 -0.00857047 
0.0167         0.961362 0 -0.00861218 
0.0168         0.961302 0 -0.00865443 
0.0169         0.961242 0 -0.00869721 
0.017          0.961182 0 -0.00874052 
0.0171         0.961123 0 -0.00878438 
0.0172         0.961063 0 -0.00882878 
0.0173         0.961004 0 -0.00887374 
0.0174         0.960944 0 -0.00891925 
0.0175         0.960885 0 -0.00896533 
0.0176         0.960826 0 -0.00901198 
0.0177         0.960767 0 -0.0090592 
0.0178         0.960708 0 -0.009107 
0.0179         0.960649 0 -0.00915537 
0.018          0.960591 0 -0.00920433 
0.0181         0.960532 0 -0.00925388 
0.0182         0.960474 0 -0.00930403 
0.0183         0.960416 0 -0.00935476 
0.0184         0.960358 0 -0.0094061 
0.0185         0.960301 0 -0.00945803 
0.0186         0.960243 0 -0.00951057 
0.0187         0.960186 0 -0.00956372 
0.0188         0.960129 0 -0.00961747 
0.0189         0.960072 0 -0.00967183 
0.019          0.960016 0 -0.0097268 
0.0191         0.95996 0 -0.00978239 
0.0192         0.959904 0 -0.00983858 
0.0193         0.959848 0 -0.00989539 
0.0194         0.959793 0 -0.00995281 
0.0195         0.959738 0 -0.0100108 
0.0196         0.959683 0 -0.0100695 
0.0197         0.959629 0 -0.0101287 
0.0198         0.959575 0 -0.0101886 
0.0199         0.959522 0 -0.0102491 
0.02           0.959468 0 -0.0103102 
0.0201         0.959416 0 -0.0103718 
0.0202         0.959363 0 -0.0104341 
0.0203         0.959311 0 -0.010497 
0.0204         0.95926 0 -0.0105605 
0.0205         0.959209 0 -0.0106246 
0.0206         0.959158 0 -0.0106892 
0.0207         0.959108 0 -0.0107544 
0.0208         0.959059 0 -0.0108203 
0.0209         0.95901 0 -0.0108866 
0.021          0.958961 0 -0.0109536 
0.0211         0.958913 0 -0.0110211 
0.0212         0.958866 0 -0.0110892 
0.0213         0.958819 0 -0.0111578 
0.0214         0.958773 0 -0.0112269 
0.0215         0.958727 0 -0.0112966 
0.0216         0.958682 0 -0.0113668 
0.0217         0.958637 0 -0.0114375 
0.0218         0.958594 0 -0.0115087 
0.0219         0.95855 0 -0.0115804 
0.022          0.958508 0 -0.0116526 
0.0221         0.958466 0 -0.0117253 
0.0222         0.958425 0 -0.0117984 
0.0223         0.958384 0 -0.011872 
0.0224         0.958344 0 -0.0119461 
0.0225         0.958305 0 -0.0120205 
0.0226         0.958266 0 -0.0120954 
0.0227         0.958229 0 -0.0121707 
0.0228         0.958192 0 -0.0122464 
0.0229         0.958155 0 -0.0123225 
0.023          0.95812 0 -0.0123989 
0.0231         0.958085 0 -0.0124757 
0.0232         0.958051 0 -0.0125528 
0.0233         0.958018 0 -0.0126303 
0.0234         0.957986 0 -0.012708 
0.0235         0.957954 0 -0.0127861 
0.0236         0.957923 0 -0.0128644 
0.0237         0.957894 0 -0.0129431 
0.0238         0.957864 0 -0.0130219 
0.0239         0.957836 0 -0.013101 
0.024          0.957809 0 -0.0131803 
0.0241         0.957782 0 -0.0132598 
0.0242         0.957756 0 -0.0133395 
0.0243         0.957731 0 -0.0134194 
0.0244         0.957707 0 -0.0134994 
0.0245         0.957684 0 -0.0135795 
0.0246         0.957662 0 -0.0136598 
0.0247         0.95764 0 -0.0137402 
0.0248         0.95762 0 -0.0138206 
0.0249         0.9576 0 -0.0139011 
0.025          0.957581 0 -0.0139817 
0.0251         0.957563 0 -0.0140623 
0.0252         0.957546 0 -0.0141429 
0.0253         0.95753 0 -0.0142234 
0.0254         0.957514 0 -0.014304 
0.0255         0.9575 0 -0.0143845 
0.0256         0.957486 0 -0.014465 
0.0257         0.957473 0 -0.0145454 
0.0258         0.957461 0 -0.0146257 
0.0259         0.95745 0 -0.0147059 
0.026          0.95744 0 -0.0147859 
0.0261         0.957431 0 -0.0148658 
0.0262         0.957422 0 -0.0149456 
0.0263         0.957415 0 -0.0150251 
0.0264         0.957408 0 -0.0151045 
0.0265         0.957402 0 -0.0151836 
0.0266         0.957397 0 -0.0152625 
0.0267         0.957393 0 -0.0153412 
0.0268         0.957389 0 -0.0154196 
0.0269         0.957386 0 -0.0154977 
0.027          0.957385 0 -0.0155755 
0.0271         0.957383 0 -0.015653 
0.0272         0.957383 0 -0.0157301 
0.0273         0.957384 0 -0.0158069 
0.0274         0.957385 0 -0.0158834 
0.0275         0.957387 0 -0.0159595 
0.0276         0.95739 0 -0.0160351 
0.0277         0.957393 0 -0.0161104 
0.0278         0.957398 0 -0.0161853 
0.0279         0.957402 0 -0.0162597 
0.028          0.957408 0 -0.0163337 
0.0281         0.957414 0 -0.0164072 
0.0282         0.957422 0 -0.0164803 
0.0283         0.957429 0 -0.0165529 
0.0284         0.957438 0 -0.016625 
0.0285         0.957447 0 -0.0166965 
0.0286         0.957456 0 -0.0167676 
0.0287         0.957466 0 -0.0168381 
0.0288         0.957477 0 -0.0169081 
0.0289         0.957489 0 -0.0169776 
0.029          0.957501 0 -0.0170465 
0.0291         0.957513 0 -0.0171148 
0.0292         0.957526 0 -0.0171825 
0.0293         0.95754 0 -0.0172497 
0.0294         0.957554 0 -0.0173163 
0.0295         0.957569 0 -0.0173823 
0.0296         0.957584 0 -0.0174477 
0.0297         0.957599 0 -0.0175124 
0.0298         0.957615 0 -0.0175766 
0.0299         0.957632 0 -0.0176401 
0.03           0.957649 0 -0.017703 
0.0301         0.957666 0 -0.0177653 
0.0302         0.957684 0 -0.017827 
0.0303         0.957702 0 -0.017888 
0.0304         0.95772 0 -0.0179483 
0.0305         0.957739 0 -0.018008 
0.0306         0.957758 0 -0.0180671 
0.0307         0.957777 0 -0.0181255 
0.0308         0.957797 0 -0.0181833 
0.0309         0.957817 0 -0.0182404 
0.031          0.957837 0 -0.0182968 
0.0311         0.957857 0 -0.0183526 
0.0312         0.957878 0 -0.0184078 
0.0313         0.957899 0 -0.0184623 
0.0314         0.95792 0 -0.0185161 
0.0315         0.957941 0 -0.0185693 
0.0316         0.957962 0 -0.0186218 
0.0317         0.957984 0 -0.0186737 
0.0318         0.958005 0 -0.0187249 
0.0319         0.958027 0 -0.0187755 
0.032          0.958049 0 -0.0188255 
0.0321         0.958071 0 -0.0188748 
0.0322         0.958093 0 -0.0189235 
0.0323         0.958115 0 -0.0189715 
0.0324         0.958137 0 -0.0190189 
0.0325         0.958159 0 -0.0190657 
0.0326         0.958182 0 -0.0191119 
0.0327         0.958204 0 -0.0191574 
0.0328         0.958226 0 -0.0192024 
0.0329         0.958248 0 -0.0192467 
0.033          0.95827 0 -0.0192905 
0.0331         0.958292 0 -0.0193337 
0.0332         0.958314 0 -0.0193762 
0.0333         0.958336 0 -0.0194182 
0.0334         0.958358 0 -0.0194597 
0.0335         0.95838 0 -0.0195005 
0.0336         0.958401 0 -0.0195408 
0.0337         0.958423 0 -0.0195806 
0.0338         0.958444 0 -0.0196198 
0.0339         0.958466 0 -0.0196585 
0.034          0.958487 0 -0.0196966 
0.0341         0.958508 0 -0.0197342 
0.0342         0.958528 0 -0.0197713 
0.0343         0.958549 0 -0.0198079 
0.0344         0.958569 0 -0.0198441 
0.0345         0.958589 0 -0.0198797 
0.0346         0.958609 0 -0.0199148 
0.0347         0.958629 0 -0.0199495 
0.0348         0.958649 0 -0.0199837 
0.0349         0.958668 0 -0.0200175 
0.035          0.958687 0 -0.0200508 
0.0351         0.958706 0 -0.0200836 
0.0352         0.958724 0 -0.0201161 
0.0353         0.958743 0 -0.0201481 
0.0354         0.958761 0 -0.0201797 
0.0355         0.958779 0 -0.0202109 
0.0356         0.958796 0 -0.0202417 
0.0357         0.958813 0 -0.0202721 
0.0358         0.95883 0 -0.0203022 
0.0359         0.958847 0 -0.0203319 
0.036          0.958863 0 -0.0203612 
0.0361         0.958879 0 -0.0203902 
0.0362         0.958895 0 -0.0204188 
0.0363         0.95891 0 -0.0204471 
0.0364         0.958925 0 -0.0204751 
0.0365         0.95894 0 -0.0205027 
0.0366         0.958954 0 -0.02053 
0.0367         0.958969 0 -0.0205571 
0.0368         0.958982 0 -0.0205838 
0.0369         0.958996 0 -0.0206103 
0.037          0.959009 0 -0.0206365 
0.0371         0.959022 0 -0.0206624 
0.0372         0.959034 0 -0.020688 
0.0373         0.959046 0 -0.0207134 
0.0374         0.959058 0 -0.0207386 
0.0375         0.959069 0 -0.0207635 
0.0376         0.95908 0 -0.0207882 
0.0377         0.959091 0 -0.0208127 
0.0378         0.959102 0 -0.0208369 
0.0379         0.959112 0 -0.0208609 
0.038          0.959121 0 -0.0208848 
0.0381         0.959131 0 -0.0209084 
0.0382         0.95914 0 -0.0209318 
0.0383         0.959148 0 -0.0209551 
0.0384         0.959157 0 -0.0209782 
0.0385         0.959165 0 -0.0210011 
0.0386         0.959172 0 -0.0210239 
0.0387         0.95918 0 -0.0210465 
0.0388         0.959186 0 -0.0210689 
0.0389         0.959193 0 -0.0210912 
0.039          0.959199 0 -0.0211133 
0.0391         0.959205 0 -0.0211353 
0.0392         0.959211 0 -0.0211572 
0.0393         0.959216 0 -0.021179 
0.0394         0.959221 0 -0.0212006 
0.0395         0.959226 0 -0.0212222 
0.0396         0.95923 0 -0.0212436 
0.0397         0.959234 0 -0.0212649 
0.0398         0.959237 0 -0.0212861 
0.0399         0.959241 0 -0.0213072 
0.04           0.959244 0 -0.0213282 
0.0401         0.959246 0 -0.0213491 
0.0402         0.959249 0 -0.02137 
0.0403         0.959251 0 -0.0213907 
0.0404         0.959252 0 -0.0214114 
0.0405         0.959254 0 -0.021432 
0.0406         0.959255 0 -0.0214526 
0.0407         0.959255 0 -0.0214731 
0.0408         0.959256 0 -0.0214935 
0.0409         0.959256 0 -0.0215138 
0.041          0.959256 0 -0.0215341 
0.0411         0.959255 0 -0.0215544 
0.0412         0.959255 0 -0.0215746 
0.0413         0.959254 0 -0.0215947 
0.0414         0.959252 0 -0.0216148 
0.0415         0.959251 0 -0.0216349 
0.0416         0.959249 0 -0.0216549 
0.0417         0.959247 0 -0.0216749 
0.0418         0.959244 0 -0.0216949 
0.0419         0.959241 0 -0.0217148 
0.042          0.959238 0 -0.0217347 
0.0421         0.959235 0 -0.0217546 
0.0422         0.959232 0 -0.0217744 
0.0423         0.959228 0 -0.0217942 
0.0424         0.959224 0 -0.021814 
0.0425         0.959219 0 -0.0218338 
0.0426         0.959215 0 -0.0218535 
0.0427         0.95921 0 -0.0218733 
0.0428         0.959205 0 -0.021893 
0.0429         0.9592 0 -0.0219127 
0.043          0.959194 0 -0.0219324 
0.0431         0.959188 0 -0.0219521 
0.0432         0.959182 0 -0.0219718 
0.0433         0.959176 0 -0.0219914 
0.0434         0.959169 0 -0.0220111 
0.0435         0.959162 0 -0.0220307 
0.0436         0.959155 0 -0.0220504 
0.0437         0.959148 0 -0.02207 
0.0438         0.959141 0 -0.0220897 
0.0439         0.959133 0 -0.0221093 
0.044          0.959125 0 -0.0221289 
0.0441         0.959117 0 -0.0221486 
0.0442         0.959109 0 -0.0221682 
0.0443         0.9591 0 -0.0221878 
0.0444         0.959091 0 -0.0222075 
0.0445         0.959082 0 -0.0222271 
0.0446         0.959073 0 -0.0222468 
0.0447         0.959063 0 -0.0222664 
0.0448         0.959054 0 -0.0222861 
0.0449         0.959044 0 -0.0223057 
0.045          0.959034 0 -0.0223254 
0.0451         0.959023 0 -0.0223451 
0.0452         0.959013 0 -0.0223648 
0.0453         0.959002 0 -0.0223845 
0.0454         0.958991 0 -0.0224042 
0.0455         0.95898 0 -0.0224239 
0.0456         0.958969 0 -0.0224436 
0.0457         0.958957 0 -0.0224633 
0.0458         0.958946 0 -0.022483 
0.0459         0.958934 0 -0.0225028 
0.046          0.958922 0 -0.0225225 
0.0461         0.958909 0 -0.0225423 
0.0462         0.958897 0 -0.0225621 
0.0463         0.958884 0 -0.0225819 
0.0464         0.958871 0 -0.0226016 
0.0465         0.958858 0 -0.0226215 
0.0466         0.958845 0 -0.0226413 
0.0467         0.958832 0 -0.0226611 
0.0468         0.958818 0 -0.0226809 
0.0469         0.958804 0 -0.0227008 
0.047          0.95879 0 -0.0227207 
0.0471         0.958776 0 -0.0227405 
0.0472         0.958762 0 -0.0227604 
0.0473         0.958747 0 -0.0227803 
0.0474         0.958733 0 -0.0228003 
0.0475         0.958718 0 -0.0228202 
0.0476         0.958703 0 -0.0228401 
0.0477         0.958688 0 -0.0228601 
0.0478         0.958672 0 -0.02288 
0.0479         0.958657 0 -0.0229 
0.048          0.958641 0 -0.02292 
0.0481         0.958625 0 -0.02294 
0.0482         0.958609 0 -0.02296 
0.0483         0.958592 0 -0.02298 
0.0484         0.958576 0 -0.0230001 
0.0485         0.958559 0 -0.0230201 
0.0486         0.958542 0 -0.0230402 
0.0487         0.958525 0 -0.0230603 
0.0488         0.958508 0 -0.0230804 
0.0489         0.958491 0 -0.0231004 
0.049          0.958473 0 -0.0231206 
0.0491         0.958456 0 -0.0231407 
0.0492         0.958438 0 -0.0231608 
0.0493         0.95842 0 -0.0231809 
0.0494         0.958401 0 -0.0232011 
0.0495         0.958383 0 -0.0232212 
0.0496         0.958364 0 -0.0232414 
0.0497         0.958345 0 -0.0232616 
0.0498         0.958326 0 -0.0232818 
0.0499         0.958307 0 -0.023302 
0.05           0.958288 0 -0.0233222 
0.0501         0.958269 0 -0.0233424 
0.0502         0.958249 0 -0.0233626 
0.0503         0.958229 0 -0.0233828 
0.0504         0.958209 0 -0.0234031 
0.0505         0.958189 0 -0.0234233 
0.0506         0.958169 0 -0.0234436 
0.0507         0.958148 0 -0.0234638 
0.0508         0.958127 0 -0.0234841 
0.0509         0.958106 0 -0.0235043 
0.051          0.958085 0 -0.0235246 
0.0511         0.958064 0 -0.0235449 
0.0512         0.958043 0 -0.0235652 
0.0513         0.958021 0 -0.0235855 
0.0514         0.957999 0 -0.0236057 
0.0515         0.957977 0 -0.023626 
0.0516         0.957955 0 -0.0236463 
0.0517         0.957933 0 -0.0236666 
0.0518         0.95791 0 -0.0236869 
0.0519         0.957888 0 -0.0237072 
0.052          0.957865 0 -0.0237275 
0.0521         0.957842 0 -0.0237478 
0.0522         0.957819 0 -0.0237681 
0.0523         0.957795 0 -0.0237884 
0.0524         0.957772 0 -0.0238087 
0.0525         0.957748 0 -0.023829 
0.0526         0.957724 0 -0.0238493 
0.0527         0.9577 0 -0.0238696 
0.0528         0.957676 0 -0.0238898 
0.0529         0.957651 0 -0.0239101 
0.053          0.957627 0 -0.0239304 
0.0531         0.957602 0 -0.0239507 
0.0532         0.957577 0 -0.0239709 
0.0533         0.957552 0 -0.0239912 
0.0534         0.957526 0 -0.0240115 
0.0535         0.957501 0 -0.0240317 
0.0536         0.957475 0 -0.024052 
0.0537         0.957449 0 -0.0240722 
0.0538         0.957423 0 -0.0240924 
0.0539         0.957397 0 -0.0241127 
0.054          0.957371 0 -0.0241329 
0.0541         0.957344 0 -0.0241531 
0.0542         0.957317 0 -0.0241733 
0.0543         0.95729 0 -0.0241935 
0.0544         0.957263 0 -0.0242136 
0.0545         0.957236 0 -0.0242338 
0.0546         0.957209 0 -0.024254 
0.0547         0.957181 0 -0.0242741 
0.0548         0.957153 0 -0.0242942 
0.0549         0.957125 0 -0.0243144 
0.055          0.957097 0 -0.0243345 
0.0551         0.957068 0 -0.0243546 
0.0552         0.95704 0 -0.0243747 
0.0553         0.957011 0 -0.0243947 
0.0554         0.956982 0 -0.0244148 
0.0555         0.956953 0 -0.0244348 
0.0556         0.956924 0 -0.0244549 
0.0557         0.956894 0 -0.0244749 
0.0558         0.956865 0 -0.0244949 
0.0559         0.956835 0 -0.0245149 
0.056          0.956805 0 -0.0245349 
0.0561         0.956774 0 -0.0245548 
0.0562         0.956744 0 -0.0245748 
0.0563         0.956713 0 -0.0245947 
0.0564         0.956683 0 -0.0246146 
0.0565         0.956652 0 -0.0246345 
0.0566         0.956621 0 -0.0246544 
0.0567         0.956589 0 -0.0246743 
0.0568         0.956558 0 -0.0246942 
0.0569         0.956526 0 -0.024714 
0.057          0.956494 0 -0.0247338 
0.0571         0.956462 0 -0.0247536 
0.0572         0.95643 0 -0.0247734 
0.0573         0.956398 0 -0.0247932 
0.0574         0.956365 0 -0.0248129 
0.0575         0.956332 0 -0.0248327 
0.0576         0.956299 0 -0.0248524 
0.0577         0.956266 0 -0.0248721 
0.0578         0.956233 0 -0.0248918 
0.0579         0.956199 0 -0.0249115 
0.058          0.956166 0 -0.0249312 
0.0581         0.956132 0 -0.0249508 
0.0582         0.956098 0 -0.0249704 
0.0583         0.956064 0 -0.0249901 
0.0584         0.956029 0 -0.0250097 
0.0585         0.955995 0 -0.0250292 
0.0586         0.95596 0 -0.0250488 
0.0587         0.955925 0 -0.0250684 
0.0588         0.95589 0 -0.0250879 
0.0589         0.955854 0 -0.0251074 
0.059          0.955819 0 -0.0251269 
0.0591         0.955783 0 -0.0251464 
0.0592         0.955747 0 -0.0251659 
0.0593         0.955711 0 -0.0251854 
0.0594         0.955675 0 -0.0252048 
0.0595         0.955638 0 -0.0252242 
0.0596         0.955602 0 -0.0252436 
0.0597         0.955565 0 -0.025263 
0.0598         0.955528 0 -0.0252824 
0.0599         0.955491 0 -0.0253018 
0.06           0.955453 0 -0.0253212 
0.0601         0.955416 0 -0.0253405 
0.0602         0.955378 0 -0.0253598 
0.0603         0.95534 0 -0.0253792 
0.0604         0.955302 0 -0.0253985 
0.0605         0.955263 0 -0.0254178 
0.0606         0.955225 0 -0.025437 
0.0607         0.955186 0 -0.0254563 
0.0608         0.955147 0 -0.0254755 
0.0609         0.955108 0 -0.0254948 
0.061          0.955069 0 -0.025514 
0.0611         0.95503 0 -0.0255332 
0.0612         0.95499 0 -0.0255524 
0.0613         0.95495 0 -0.0255716 
0.0614         0.95491 0 -0.0255908 
0.0615         0.95487 0 -0.02561 
0.0616         0.954829 0 -0.0256291 
0.0617         0.954789 0 -0.0256482 
0.0618         0.954748 0 -0.0256674 
0.0619         0.954707 0 -0.0256865 
0.062          0.954666 0 -0.0257056 
0.0621         0.954625 0 -0.0257247 
0.0622         0.954583 0 -0.0257438 
0.0623         0.954541 0 -0.0257629 
0.0624         0.954499 0 -0.0257819 
0.0625         0.954457 0 -0.025801 
0.0626         0.954415 0 -0.02582 
0.0627         0.954373 0 -0.025839 
0.0628         0.95433 0 -0.0258581 
0.0629         0.954287 0 -0.0258771 
0.063          0.954244 0 -0.0258961 
0.0631         0.954201 0 -0.025915 
0.0632         0.954157 0 -0.025934 
0.0633         0.954114 0 -0.025953 
0.0634         0.95407 0 -0.0259719 
0.0635         0.954026 0 -0.0259909 
0.0636         0.953982 0 -0.0260098 
0.0637         0.953937 0 -0.0260287 
0.0638         0.953893 0 -0.0260477 
0.0639         0.953848 0 -0.0260666 
0.064          0.953803 0 -0.0260855 
0.0641         0.953758 0 -0.0261043 
0.0642         0.953712 0 -0.0261232 
0.0643         0.953667 0 -0.0261421 
0.0644         0.953621 0 -0.0261609 
0.0645         0.953575 0 -0.0261798 
0.0646         0.953529 0 -0.0261986 
0.0647         0.953483 0 -0.0262174 
0.0648         0.953436 0 -0.0262362 
0.0649         0.953389 0 -0.026255 
0.065          0.953343 0 -0.0262738 
0.0651         0.953296 0 -0.0262926 
0.0652         0.953248 0 -0.0263114 
0.0653         0.953201 0 -0.0263301 
0.0654         0.953153 0 -0.0263489 
0.0655         0.953105 0 -0.0263676 
0.0656         0.953057 0 -0.0263863 
0.0657         0.953009 0 -0.026405 
0.0658         0.952961 0 -0.0264237 
0.0659         0.952912 0 -0.0264424 
0.066          0.952863 0 -0.0264611 
0.0661         0.952814 0 -0.0264797 
0.0662         0.952765 0 -0.0264984 
0.0663         0.952716 0 -0.026517 
0.0664         0.952666 0 -0.0265357 
0.0665         0.952616 0 -0.0265543 
0.0666         0.952566 0 -0.0265729 
0.0667         0.952516 0 -0.0265915 
0.0668         0.952466 0 -0.0266101 
0.0669         0.952415 0 -0.0266286 
0.067          0.952365 0 -0.0266472 
0.0671         0.952314 0 -0.0266657 
0.0672         0.952263 0 -0.0266843 
0.0673         0.952211 0 -0.0267028 
0.0674         0.95216 0 -0.0267213 
0.0675         0.952108 0 -0.0267398 
0.0676         0.952056 0 -0.0267582 
0.0677         0.952004 0 -0.0267767 
0.0678         0.951952 0 -0.0267952 
0.0679         0.9519 0 -0.0268136 
0.068          0.951847 0 -0.026832 
0.0681         0.951794 0 -0.0268504 
0.0682         0.951741 0 -0.0268688 
0.0683         0.951688 0 -0.0268872 
0.0684         0.951634 0 -0.0269056 
0.0685         0.951581 0 -0.0269239 
0.0686         0.951527 0 -0.0269423 
0.0687         0.951473 0 -0.0269606 
0.0688         0.951419 0 -0.0269789 
0.0689         0.951365 0 -0.0269972 
0.069          0.95131 0 -0.0270155 
0.0691         0.951255 0 -0.0270338 
0.0692         0.9512 0 -0.0270521 
0.0693         0.951145 0 -0.0270703 
0.0694         0.95109 0 -0.0270885 
0.0695         0.951035 0 -0.0271068 
0.0696         0.950979 0 -0.027125 
0.0697         0.950923 0 -0.0271431 
0.0698         0.950867 0 -0.0271613 
0.0699         0.950811 0 -0.0271795 
0.07           0.950754 0 -0.0271976 
0.0701         0.950698 0 -0.0272158 
0.0702         0.950641 0 -0.0272339 
0.0703         0.950584 0 -0.027252 
0.0704         0.950527 0 -0.0272701 
0.0705         0.950469 0 -0.0272881 
0.0706         0.950412 0 -0.0273062 
0.0707         0.950354 0 -0.0273242 
0.0708         0.950296 0 -0.0273423 
0.0709         0.950238 0 -0.0273603 
0.071          0.95018 0 -0.0273783 
0.0711         0.950121 0 -0.0273963 
0.0712         0.950062 0 -0.0274143 
0.0713         0.950004 0 -0.0274322 
0.0714         0.949944 0 -0.0274502 
0.0715         0.949885 0 -0.0274681 
0.0716         0.949826 0 -0.027486 
0.0717         0.949766 0 -0.0275039 
0.0718         0.949706 0 -0.0275218 
0.0719         0.949646 0 -0.0275397 
0.072          0.949586 0 -0.0275575 
0.0721         0.949526 0 -0.0275754 
0.0722         0.949465 0 -0.0275932 
0.0723         0.949404 0 -0.0276111 
0.0724         0.949343 0 -0.0276289 
0.0725         0.949282 0 -0.0276467 
0.0726         0.949221 0 -0.0276644 
0.0727         0.94916 0 -0.0276822 
0.0728         0.949098 0 -0.0277 
0.0729         0.949036 0 -0.0277177 
0.073          0.948974 0 -0.0277354 
0.0731         0.948912 0 -0.0277532 
0.0732         0.948849 0 -0.0277709 
0.0733         0.948787 0 -0.0277886 
0.0734         0.948724 0 -0.0278062 
0.0735         0.948661 0 -0.0278239 
0.0736         0.948598 0 -0.0278416 
0.0737         0.948534 0 -0.0278592 
0.0738         0.948471 0 -0.0278768 
0.0739         0.948407 0 -0.0278944 
0.074          0.948343 0 -0.0279121 
0.0741         0.948279 0 -0.0279296 
0.0742         0.948215 0 -0.0279472 
0.0743         0.94815 0 -0.0279648 
0.0744         0.948085 0 -0.0279824 
0.0745         0.948021 0 -0.0279999 
0.0746         0.947956 0 -0.0280174 
0.0747         0.94789 0 -0.0280349 
0.0748         0.947825 0 -0.0280525 
0.0749         0.947759 0 -0.02807 
0.075          0.947694 0 -0.0280874 
0.0751         0.947628 0 -0.0281049 
0.0752         0.947561 0 -0.0281224 
0.0753         0.947495 0 -0.0281398 
0.0754         0.947429 0 -0.0281573 
0.0755         0.947362 0 -0.0281747 
0.0756         0.947295 0 -0.0281921 
0.0757         0.947228 0 -0.0282095 
0.0758         0.947161 0 -0.0282269 
0.0759         0.947093 0 -0.0282443 
0.076          0.947026 0 -0.0282617 
0.0761         0.946958 0 -0.028279 
0.0762         0.94689 0 -0.0282964 
0.0763         0.946822 0 -0.0283137 
0.0764         0.946753 0 -0.0283311 
0.0765         0.946685 0 -0.0283484 
0.0766         0.946616 0 -0.0283657 
0.0767         0.946547 0 -0.028383 
0.0768         0.946478 0 -0.0284003 
0.0769         0.946409 0 -0.0284175 
0.077          0.946339 0 -0.0284348 
0.0771         0.94627 0 -0.028452 
0.0772         0.9462 0 -0.0284693 
0.0773         0.94613 0 -0.0284865 
0.0774         0.94606 0 -0.0285037 
0.0775         0.945989 0 -0.0285209 
0.0776         0.945919 0 -0.0285381 
0.0777         0.945848 0 -0.0285553 
0.0778         0.945777 0 -0.0285725 
0.0779         0.945706 0 -0.0285897 
0.078          0.945635 0 -0.0286068 
0.0781         0.945563 0 -0.028624 
0.0782         0.945491 0 -0.0286411 
0.0783         0.94542 0 -0.0286582 
0.0784         0.945348 0 -0.0286753 
0.0785         0.945275 0 -0.0286924 
0.0786         0.945203 0 -0.0287095 
0.0787         0.945131 0 -0.0287266 