/*--------------------------------*- C++ -*----------------------------------*\
| =========                 |                                                 |
| \\      /  F ield         | OpenFOAM: The Open Source CFD Toolbox           |
|  \\    /   O peration     | Version:  2406                                  |
|   \\  /    A nd           | Website:  www.openfoam.com                      |
|    \\/     M anipulation  |                                                 |
\*---------------------------------------------------------------------------*/
FoamFile
{
    version     2.0;
    format      ascii;
    arch        "LSB;label=32;scalar=64";
    class       volScalarField;
    location    "19.975";
    object      p;
}
// * * * * * * * * * * * * * * * * * * * * * * * * * * * * * * * * * * * * * //

dimensions      [0 2 -2 0 0 0 0];

internalField   nonuniform List<scalar> 
40000
(
-6.67779e-09
9.98065e-06
1.73967e-05
2.17122e-05
2.34115e-05
2.23663e-05
1.81898e-05
1.04677e-05
-1.23643e-06
-1.74016e-05
-3.85523e-05
-6.52551e-05
-9.81158e-05
-0.000137776
-0.000184915
-0.00024024
-0.000304489
-0.000378439
-0.000462884
-0.000558651
-0.000666597
-0.000787605
-0.000922594
-0.00107251
-0.00123834
-0.00142112
-0.00162191
-0.00184183
-0.00208205
-0.0023438
-0.00262837
-0.00293711
-0.00327144
-0.00363285
-0.00402289
-0.00444318
-0.00489541
-0.00538131
-0.00590268
-0.00646133
-0.00705912
-0.00769791
-0.00837954
-0.00910583
-0.00987852
-0.0106993
-0.0115697
-0.0124912
-0.0134649
-0.014492
-0.0155731
-0.0167088
-0.0178993
-0.0191443
-0.0204435
-0.0217959
-0.0232001
-0.0246545
-0.0261569
-0.0277048
-0.0292953
-0.030925
-0.0325905
-0.0342877
-0.0360127
-0.0377611
-0.0395286
-0.0413109
-0.0431035
-0.0449023
-0.0467032
-0.0485024
-0.0502962
-0.0520813
-0.0538549
-0.055614
-0.0573564
-0.0590798
-0.0607823
-0.062462
-0.0641174
-0.0657466
-0.0673481
-0.0689199
-0.0704601
-0.0719664
-0.0734363
-0.0748669
-0.0762548
-0.0775964
-0.0788875
-0.0801235
-0.0812995
-0.0824101
-0.0834496
-0.0844117
-0.0852903
-0.0860787
-0.0867702
-0.0873579
-0.000915734
-0.000900946
-0.000889071
-0.000880763
-0.000875243
-0.00087258
-0.000873184
-0.000877484
-0.000885921
-0.000898978
-0.000917184
-0.00094111
-0.000971368
-0.0010086
-0.0010535
-0.00110677
-0.00116916
-0.00124144
-0.00132443
-0.00141893
-0.00152583
-0.00164599
-0.00178033
-0.0019298
-0.00209539
-0.00227811
-0.00247902
-0.00269923
-0.0029399
-0.00320223
-0.0034875
-0.00379704
-0.00413224
-0.00449457
-0.00488556
-0.00530679
-0.00575992
-0.00624665
-0.00676876
-0.00732802
-0.00792625
-0.00856528
-0.00924692
-0.00997295
-0.0107451
-0.011565
-0.0124342
-0.013354
-0.0143257
-0.0153502
-0.0164284
-0.0175606
-0.0187471
-0.0199877
-0.0212818
-0.0226286
-0.0240267
-0.0254745
-0.0269698
-0.0285101
-0.0300926
-0.0317139
-0.0333707
-0.035059
-0.0367748
-0.038514
-0.0402724
-0.0420455
-0.0438292
-0.0456193
-0.047412
-0.0492033
-0.0509898
-0.0527683
-0.0545358
-0.0562897
-0.0580276
-0.0597474
-0.0614471
-0.0631249
-0.0647791
-0.0664081
-0.06801
-0.0695831
-0.0711253
-0.0726343
-0.0741075
-0.0755418
-0.076934
-0.0782803
-0.0795763
-0.0808176
-0.0819989
-0.0831149
-0.0841598
-0.0851272
-0.0860109
-0.0868042
-0.0875001
-0.0880919
-0.00176153
-0.00174225
-0.00172618
-0.00171408
-0.00170491
-0.00169867
-0.0016958
-0.00169673
-0.00170192
-0.00171185
-0.00172705
-0.00174809
-0.0017756
-0.00181021
-0.00185263
-0.00190356
-0.00196377
-0.00203402
-0.00211512
-0.0022079
-0.00231324
-0.002432
-0.0025651
-0.00271349
-0.00287815
-0.00306008
-0.00326035
-0.00348003
-0.00372027
-0.00398228
-0.00426729
-0.00457662
-0.00491164
-0.00527378
-0.00566454
-0.00608548
-0.00653823
-0.00702446
-0.0075459
-0.0081043
-0.00870146
-0.00933915
-0.0100192
-0.0107432
-0.0115131
-0.0123303
-0.0131964
-0.0141127
-0.0150804
-0.0161006
-0.0171738
-0.0183006
-0.0194812
-0.0207155
-0.0220027
-0.0233422
-0.0247325
-0.0261721
-0.0276588
-0.0291902
-0.0307635
-0.0323755
-0.0340226
-0.0357012
-0.0374074
-0.039137
-0.0408858
-0.0426497
-0.0444246
-0.0462062
-0.0479908
-0.0497747
-0.0515544
-0.0533268
-0.0550889
-0.0568381
-0.0585721
-0.0602888
-0.0619862
-0.0636625
-0.065316
-0.066945
-0.0685477
-0.0701222
-0.0716664
-0.073178
-0.0746543
-0.0760922
-0.0774884
-0.078839
-0.0801396
-0.0813857
-0.0825719
-0.0836929
-0.0847426
-0.0857149
-0.0866033
-0.0874009
-0.088101
-0.0886964
-0.00253672
-0.00251327
-0.00249328
-0.00247762
-0.00246499
-0.00245533
-0.0024491
-0.00244676
-0.00244875
-0.00245555
-0.0024677
-0.00248578
-0.00251041
-0.00254225
-0.00258197
-0.00263032
-0.00268803
-0.0027559
-0.00283474
-0.00292537
-0.00302866
-0.00314549
-0.00327679
-0.00342349
-0.00358656
-0.00376701
-0.00396588
-0.00418424
-0.00442324
-0.00468405
-0.00496788
-0.00527604
-0.00560986
-0.00597075
-0.00636019
-0.00677969
-0.00723086
-0.00771533
-0.00823479
-0.00879098
-0.00938563
-0.0100205
-0.0106974
-0.0114179
-0.0121839
-0.0129968
-0.0138581
-0.0147692
-0.0157312
-0.0167451
-0.0178117
-0.0189314
-0.0201044
-0.0213306
-0.0226094
-0.0239399
-0.025321
-0.026751
-0.0282278
-0.0297491
-0.0313121
-0.0329137
-0.0345505
-0.0362188
-0.0379148
-0.0396344
-0.0413736
-0.0431283
-0.0448943
-0.0466676
-0.0484445
-0.0502213
-0.0519947
-0.0537613
-0.0555185
-0.0572636
-0.0589943
-0.0607084
-0.0624039
-0.0640791
-0.0657322
-0.0673615
-0.0689651
-0.0705411
-0.0720874
-0.0736016
-0.0750809
-0.0765223
-0.0779222
-0.0792768
-0.0805817
-0.0818321
-0.0830229
-0.0841484
-0.0852027
-0.0861794
-0.087072
-0.0878737
-0.0885774
-0.0891762
-0.00324158
-0.0032143
-0.00319069
-0.00317171
-0.00315582
-0.00314292
-0.00313348
-0.00312796
-0.00312681
-0.00313051
-0.00313961
-0.00315468
-0.00317634
-0.00320525
-0.00324211
-0.00328764
-0.0033426
-0.00340777
-0.00348397
-0.00357204
-0.00367284
-0.00378726
-0.0039162
-0.00406062
-0.00422148
-0.00439977
-0.00459654
-0.00481284
-0.00504979
-0.00530856
-0.00559034
-0.00589641
-0.00622807
-0.00658672
-0.00697378
-0.00739075
-0.0078392
-0.00832073
-0.00883699
-0.00938969
-0.00998052
-0.0106112
-0.0112835
-0.0119991
-0.0127597
-0.0135667
-0.0144217
-0.015326
-0.0162807
-0.0172869
-0.0183452
-0.0194562
-0.02062
-0.0218366
-0.0231054
-0.0244256
-0.025796
-0.0272151
-0.0286809
-0.030191
-0.0317428
-0.0333332
-0.0349589
-0.0366163
-0.0383017
-0.040011
-0.0417404
-0.0434857
-0.0452429
-0.0470081
-0.0487776
-0.0505477
-0.052315
-0.0540765
-0.0558292
-0.0575707
-0.0592984
-0.0610103
-0.0627045
-0.0643789
-0.066032
-0.0676618
-0.0692665
-0.0708442
-0.0723926
-0.0739093
-0.0753916
-0.0768362
-0.0782397
-0.079598
-0.0809069
-0.0821614
-0.0833564
-0.0844861
-0.0855445
-0.0865253
-0.0874218
-0.0882271
-0.0889343
-0.0895361
-0.00387721
-0.00384645
-0.00381952
-0.00379747
-0.00377854
-0.00376258
-0.00375009
-0.00374152
-0.00373732
-0.00373798
-0.00374404
-0.00375607
-0.00377469
-0.00380058
-0.00383441
-0.00387693
-0.00392889
-0.00399108
-0.00406432
-0.00414945
-0.00424733
-0.00435886
-0.00448495
-0.00462654
-0.00478458
-0.00496008
-0.00515406
-0.00536757
-0.00560172
-0.00585765
-0.00613654
-0.00643964
-0.00676823
-0.00712366
-0.00750736
-0.00792077
-0.00836542
-0.0088429
-0.0093548
-0.00990281
-0.0104886
-0.0111139
-0.0117803
-0.0124896
-0.0132433
-0.0140431
-0.0148903
-0.0157863
-0.0167323
-0.0177292
-0.0187778
-0.0198785
-0.0210318
-0.0222373
-0.0234947
-0.0248033
-0.0261618
-0.0275689
-0.0290225
-0.0305204
-0.0320601
-0.0336385
-0.0352524
-0.0368984
-0.0385727
-0.0402715
-0.0419908
-0.0437267
-0.0454752
-0.0472324
-0.0489946
-0.0507582
-0.0525199
-0.0542766
-0.0560253
-0.0577635
-0.0594888
-0.061199
-0.0628921
-0.0645662
-0.0662195
-0.0678501
-0.0694561
-0.0710356
-0.0725862
-0.0741055
-0.0755906
-0.0770383
-0.0784452
-0.0798071
-0.0811197
-0.0823781
-0.0835769
-0.0847106
-0.0857729
-0.0867574
-0.0876576
-0.0884663
-0.0891766
-0.0897812
-0.00444539
-0.00441149
-0.00438156
-0.0043567
-0.00433496
-0.00431615
-0.00430077
-0.00428929
-0.00428216
-0.00427984
-0.00428289
-0.00429188
-0.00430744
-0.00433021
-0.0043609
-0.00440024
-0.00444899
-0.00450795
-0.00457793
-0.00465977
-0.00475436
-0.00486256
-0.00498532
-0.00512354
-0.00527821
-0.00545031
-0.00564085
-0.00585089
-0.0060815
-0.00633382
-0.00660902
-0.0069083
-0.00723294
-0.00758426
-0.00796363
-0.00837249
-0.00881233
-0.00928469
-0.00979115
-0.0103333
-0.0109129
-0.0115315
-0.0121909
-0.0128926
-0.0136382
-0.0144294
-0.0152675
-0.0161539
-0.0170897
-0.0180759
-0.0191134
-0.0202026
-0.0213438
-0.022537
-0.0237818
-0.0250774
-0.0264229
-0.0278167
-0.0292571
-0.0307419
-0.0322686
-0.0338342
-0.0354357
-0.0370697
-0.0387325
-0.0404204
-0.0421295
-0.0438559
-0.0455956
-0.0473449
-0.0491001
-0.0508575
-0.0526138
-0.054366
-0.056111
-0.0578464
-0.0595696
-0.0612785
-0.062971
-0.064645
-0.0662989
-0.0679305
-0.0695381
-0.0711195
-0.0726724
-0.0741942
-0.0756822
-0.0771331
-0.0785433
-0.0799087
-0.0812248
-0.0824868
-0.0836893
-0.0848268
-0.0858927
-0.0868808
-0.0877844
-0.0885963
-0.0893096
-0.0899168
-0.00494848
-0.00491179
-0.00487917
-0.00485176
-0.00482744
-0.00480599
-0.00478791
-0.00477368
-0.00476373
-0.00475854
-0.00475864
-0.00476461
-0.00477707
-0.00479668
-0.00482413
-0.00486016
-0.00490553
-0.00496103
-0.00502748
-0.00510574
-0.00519666
-0.00530115
-0.00542012
-0.0055545
-0.00570526
-0.00587338
-0.00605986
-0.00626577
-0.00649215
-0.00674013
-0.00701086
-0.00730552
-0.00762537
-0.00797169
-0.00834583
-0.00874921
-0.00918326
-0.00964949
-0.0101495
-0.0106848
-0.011257
-0.0118679
-0.0125189
-0.0132118
-0.0139482
-0.0147295
-0.0155572
-0.0164327
-0.0173571
-0.0183314
-0.0193564
-0.0204328
-0.0215607
-0.0227403
-0.0239711
-0.0252527
-0.0265839
-0.0279635
-0.0293897
-0.0308604
-0.0323731
-0.0339253
-0.0355137
-0.0371351
-0.038786
-0.0404626
-0.0421612
-0.0438779
-0.0456088
-0.0473502
-0.0490984
-0.0508498
-0.052601
-0.0543489
-0.0560907
-0.0578236
-0.0595451
-0.061253
-0.0629452
-0.0646195
-0.0662742
-0.0679072
-0.0695166
-0.0711001
-0.0726554
-0.07418
-0.0756709
-0.0771249
-0.0785383
-0.0799071
-0.0812268
-0.0824924
-0.0836985
-0.0848394
-0.0859088
-0.0869004
-0.0878072
-0.0886222
-0.0893383
-0.0899479
-0.00538928
-0.00535015
-0.00531514
-0.00528544
-0.00525878
-0.00523491
-0.00521432
-0.0051975
-0.00518488
-0.00517692
-0.00517415
-0.00517715
-0.00518654
-0.00520296
-0.00522711
-0.00525972
-0.00530155
-0.00535341
-0.0054161
-0.00549049
-0.00557743
-0.00567784
-0.00579261
-0.00592269
-0.00606904
-0.00623264
-0.00641449
-0.00661564
-0.00683713
-0.00708006
-0.00734558
-0.00763485
-0.0079491
-0.00828958
-0.00865763
-0.0090546
-0.00948193
-0.00994108
-0.0104336
-0.010961
-0.0115248
-0.0121268
-0.0127685
-0.0134515
-0.0141774
-0.0149477
-0.0157639
-0.0166272
-0.0175389
-0.0185
-0.0195114
-0.0205736
-0.021687
-0.0228518
-0.0240676
-0.0253339
-0.0266498
-0.028014
-0.0294249
-0.0308806
-0.0323786
-0.0339165
-0.0354911
-0.0370994
-0.0387378
-0.0404027
-0.0420905
-0.0437973
-0.0455193
-0.0472528
-0.048994
-0.0507395
-0.0524858
-0.0542297
-0.0559684
-0.0576992
-0.0594193
-0.0611266
-0.0628188
-0.0644938
-0.0661497
-0.0677843
-0.0693957
-0.0709815
-0.0725395
-0.074067
-0.075561
-0.0770182
-0.078435
-0.0798072
-0.0811303
-0.0823994
-0.0836091
-0.0847534
-0.0858263
-0.0868212
-0.0877312
-0.0885492
-0.089268
-0.0898801
-0.00577094
-0.00572971
-0.00569261
-0.00566089
-0.00563213
-0.00560605
-0.00558317
-0.00556393
-0.00554878
-0.00553818
-0.00553264
-0.00553274
-0.00553907
-0.0055523
-0.00557312
-0.00560224
-0.00564043
-0.00568848
-0.00574723
-0.0058175
-0.00590018
-0.00599617
-0.00610638
-0.00623174
-0.00637322
-0.00653179
-0.00670846
-0.00690425
-0.00712021
-0.00735744
-0.00761704
-0.00790018
-0.00820804
-0.00854189
-0.00890299
-0.0092927
-0.00971241
-0.0101635
-0.0106476
-0.0111661
-0.0117206
-0.0123127
-0.012944
-0.013616
-0.0143303
-0.0150885
-0.0158919
-0.0167419
-0.0176397
-0.0185865
-0.019583
-0.0206299
-0.0217276
-0.0228764
-0.0240759
-0.0253258
-0.0266253
-0.0279731
-0.0293678
-0.0308075
-0.03229
-0.0338127
-0.0353728
-0.0369673
-0.0385927
-0.0402455
-0.0419221
-0.0436187
-0.0453316
-0.047057
-0.0487913
-0.0505308
-0.0522723
-0.0540125
-0.0557484
-0.0574772
-0.0591963
-0.0609033
-0.0625959
-0.0642719
-0.0659292
-0.0675659
-0.0691796
-0.0707681
-0.072329
-0.0738595
-0.0753568
-0.0768174
-0.0782376
-0.0796134
-0.0809401
-0.0822128
-0.083426
-0.0845739
-0.0856502
-0.0866484
-0.0875616
-0.0883825
-0.089104
-0.0897184
-0.00609689
-0.00605386
-0.00601498
-0.00598149
-0.00595087
-0.00592281
-0.00589782
-0.00587636
-0.00585885
-0.00584574
-0.00583754
-0.00583482
-0.00583817
-0.00584823
-0.00586569
-0.00589128
-0.00592574
-0.00596988
-0.0060245
-0.00609047
-0.00616864
-0.00625992
-0.00636522
-0.00648549
-0.00662167
-0.00677474
-0.00694571
-0.0071356
-0.00734544
-0.00757632
-0.00782933
-0.00810562
-0.00840637
-0.00873279
-0.00908614
-0.00946775
-0.00987897
-0.0103212
-0.0107959
-0.0113046
-0.0118487
-0.0124299
-0.0130497
-0.0137097
-0.0144114
-0.0151563
-0.0159459
-0.0167815
-0.0176644
-0.0185956
-0.019576
-0.0206065
-0.0216874
-0.022819
-0.0240012
-0.0252336
-0.0265155
-0.0278459
-0.0292233
-0.0306461
-0.032112
-0.0336188
-0.0351637
-0.0367436
-0.0383554
-0.0399955
-0.0416605
-0.0433466
-0.0450501
-0.0467673
-0.0484945
-0.0502282
-0.0519649
-0.0537014
-0.0554347
-0.0571618
-0.0588801
-0.0605871
-0.0622804
-0.0639577
-0.065617
-0.0672559
-0.0688723
-0.0704638
-0.0720279
-0.0735619
-0.0750626
-0.0765269
-0.0779508
-0.0793303
-0.0806607
-0.0819371
-0.083154
-0.0843055
-0.0853853
-0.0863869
-0.0873033
-0.0881273
-0.0888515
-0.0894683
-0.00637068
-0.00632619
-0.0062858
-0.00625079
-0.00621854
-0.00618872
-0.00616184
-0.00613834
-0.00611864
-0.00610317
-0.00609244
-0.00608699
-0.00608743
-0.00609437
-0.0061085
-0.00613054
-0.00616123
-0.00620136
-0.00625174
-0.00631322
-0.00638667
-0.00647299
-0.0065731
-0.00668792
-0.00681842
-0.00696557
-0.00713036
-0.00731382
-0.00751698
-0.00774091
-0.00798669
-0.00825546
-0.00854837
-0.00886662
-0.00921145
-0.00958414
-0.00998603
-0.0104185
-0.010883
-0.0113809
-0.0119137
-0.0124831
-0.0130905
-0.0137374
-0.0144254
-0.0151561
-0.0159308
-0.0167509
-0.0176176
-0.0185322
-0.0194955
-0.0205084
-0.0215713
-0.0226846
-0.0238482
-0.025062
-0.0263253
-0.0276372
-0.0289964
-0.0304012
-0.0318498
-0.0333397
-0.0348685
-0.0364332
-0.0380306
-0.0396575
-0.0413103
-0.0429855
-0.0446792
-0.0463879
-0.0481079
-0.0498356
-0.0515676
-0.0533005
-0.0550312
-0.0567568
-0.0584746
-0.0601819
-0.0618762
-0.0635553
-0.0652167
-0.0668584
-0.0684778
-0.0700727
-0.0716404
-0.0731781
-0.0746828
-0.076151
-0.0775789
-0.0789623
-0.0802967
-0.081577
-0.0827978
-0.0839531
-0.0850366
-0.0860418
-0.0869615
-0.0877886
-0.0885156
-0.089135
-0.00659601
-0.00655033
-0.00650871
-0.00647243
-0.00643878
-0.00640742
-0.00637884
-0.0063535
-0.00633177
-0.00631411
-0.00630098
-0.00629294
-0.00629055
-0.00629445
-0.00630529
-0.00632378
-0.00635068
-0.00638674
-0.00643279
-0.00648966
-0.00655822
-0.00663937
-0.00673401
-0.00684309
-0.00696756
-0.00710839
-0.00726658
-0.00744313
-0.00763909
-0.0078555
-0.00809345
-0.00835405
-0.00863844
-0.0089478
-0.00928335
-0.00964635
-0.0100381
-0.01046
-0.0109133
-0.0113996
-0.0119203
-0.0124768
-0.0130708
-0.0137037
-0.0143771
-0.0150925
-0.0158512
-0.0166547
-0.0175043
-0.0184012
-0.0193462
-0.0203404
-0.0213842
-0.0224781
-0.0236222
-0.0248162
-0.0260598
-0.0273521
-0.028692
-0.0300779
-0.031508
-0.0329802
-0.034492
-0.0360406
-0.0376231
-0.039236
-0.0408761
-0.0425398
-0.0442234
-0.0459233
-0.0476358
-0.0493573
-0.0510844
-0.0528137
-0.054542
-0.0562663
-0.0579837
-0.0596916
-0.0613873
-0.0630684
-0.0647325
-0.0663772
-0.0680002
-0.0695988
-0.0711706
-0.0727125
-0.0742214
-0.0756939
-0.0771262
-0.078514
-0.0798527
-0.0811372
-0.0823621
-0.0835215
-0.0846089
-0.0856178
-0.0865411
-0.0873715
-0.0881016
-0.0887235
-0.00677656
-0.00672998
-0.00668739
-0.00665006
-0.00661523
-0.00658255
-0.00655248
-0.00652548
-0.00650192
-0.00648222
-0.00646685
-0.00645633
-0.00645124
-0.00645217
-0.00645979
-0.00647478
-0.00649788
-0.00652986
-0.00657151
-0.00662368
-0.00668721
-0.00676301
-0.00685199
-0.00695506
-0.0070732
-0.00720736
-0.00735854
-0.00752775
-0.00771602
-0.00792439
-0.00815393
-0.00840575
-0.00868098
-0.00898077
-0.00930632
-0.00965888
-0.0100397
-0.0104502
-0.0108916
-0.0113653
-0.0118729
-0.0124158
-0.0129954
-0.0136134
-0.0142712
-0.0149702
-0.015712
-0.016498
-0.0173293
-0.0182074
-0.0191331
-0.0201075
-0.0211311
-0.0222045
-0.0233278
-0.024501
-0.0257238
-0.0269954
-0.0283149
-0.0296808
-0.0310916
-0.0325451
-0.034039
-0.0355707
-0.0371373
-0.0387356
-0.0403623
-0.0420139
-0.0436868
-0.0453775
-0.0470822
-0.0487974
-0.0505195
-0.0522451
-0.053971
-0.0556941
-0.0574114
-0.05912
-0.0608174
-0.0625009
-0.064168
-0.0658162
-0.0674432
-0.0690461
-0.0706223
-0.0721689
-0.0736826
-0.0751599
-0.0765969
-0.0779895
-0.0793329
-0.0806221
-0.0818516
-0.0830153
-0.084107
-0.0851199
-0.086047
-0.086881
-0.0876142
-0.088239
-0.00691601
-0.00686879
-0.00682547
-0.00678732
-0.00675153
-0.00671772
-0.00668638
-0.00665791
-0.00663269
-0.00661112
-0.00659366
-0.00658082
-0.00657314
-0.00657122
-0.00657569
-0.00658724
-0.00660659
-0.00663448
-0.00667172
-0.00671912
-0.00677753
-0.00684785
-0.00693098
-0.00702783
-0.00713937
-0.00726656
-0.00741039
-0.00757186
-0.00775199
-0.00795182
-0.00817243
-0.0084149
-0.00868035
-0.00896992
-0.00928479
-0.00962618
-0.00999534
-0.0103936
-0.0108222
-0.0112826
-0.0117763
-0.0123046
-0.012869
-0.0134711
-0.0141122
-0.014794
-0.0155179
-0.0162852
-0.0170974
-0.0179556
-0.0188609
-0.0198144
-0.0208167
-0.0218685
-0.02297
-0.0241213
-0.0253222
-0.026572
-0.02787
-0.0292149
-0.0306052
-0.032039
-0.033514
-0.0350279
-0.0365778
-0.0381606
-0.0397732
-0.0414122
-0.0430739
-0.0447548
-0.0464514
-0.0481599
-0.0498768
-0.0515986
-0.0533221
-0.055044
-0.0567612
-0.0584709
-0.0601702
-0.0618564
-0.063527
-0.0651792
-0.0668106
-0.0684183
-0.0699995
-0.0715513
-0.0730703
-0.0745529
-0.0759953
-0.0773932
-0.0787418
-0.0800361
-0.0812705
-0.0824391
-0.0835354
-0.0845527
-0.085484
-0.0863218
-0.0870585
-0.0876864
-0.00701796
-0.00697035
-0.00692654
-0.00688777
-0.00685122
-0.0068165
-0.00678406
-0.00675432
-0.00672762
-0.00670436
-0.00668498
-0.00666995
-0.00665983
-0.00665517
-0.00665661
-0.0066648
-0.00668044
-0.00670429
-0.00673711
-0.00677972
-0.00683296
-0.0068977
-0.00697484
-0.0070653
-0.00717003
-0.00728998
-0.00742614
-0.00757951
-0.00775111
-0.00794197
-0.00815315
-0.00838574
-0.00864083
-0.00891955
-0.00922308
-0.00955261
-0.00990938
-0.0102947
-0.0107098
-0.011156
-0.0116349
-0.0121477
-0.012696
-0.0132813
-0.013905
-0.0145686
-0.0152735
-0.0160213
-0.0168132
-0.0176505
-0.0185344
-0.0194659
-0.0204459
-0.021475
-0.0225535
-0.0236818
-0.0248596
-0.0260866
-0.027362
-0.0286848
-0.0300536
-0.0314666
-0.0329218
-0.0344169
-0.0359491
-0.0375157
-0.0391134
-0.0407389
-0.0423888
-0.0440594
-0.0457473
-0.0474488
-0.0491602
-0.0508781
-0.0525991
-0.0543198
-0.0560371
-0.057748
-0.0594495
-0.0611388
-0.0628132
-0.0644699
-0.0661061
-0.0677192
-0.069306
-0.0708635
-0.0723884
-0.073877
-0.0753254
-0.0767291
-0.0780835
-0.0793834
-0.0806233
-0.0817972
-0.0828986
-0.0839207
-0.0848566
-0.0856986
-0.0864392
-0.0870704
-0.00708592
-0.00703814
-0.00699405
-0.00695486
-0.00691775
-0.00688229
-0.00684896
-0.00681812
-0.00679013
-0.00676536
-0.00674421
-0.00672717
-0.00671474
-0.00670749
-0.006706
-0.00671094
-0.00672297
-0.00674283
-0.00677127
-0.00680909
-0.00685713
-0.00691623
-0.0069873
-0.00707123
-0.00716896
-0.00728146
-0.0074097
-0.00755466
-0.00771737
-0.00789886
-0.00810016
-0.00832237
-0.00856656
-0.00883387
-0.00912544
-0.00944245
-0.00978612
-0.0101577
-0.0105585
-0.0109898
-0.0114531
-0.0119496
-0.012481
-0.0130485
-0.0136538
-0.0142982
-0.0149833
-0.0157105
-0.0164812
-0.0172966
-0.0181581
-0.0190666
-0.0200232
-0.0210284
-0.022083
-0.0231871
-0.0243408
-0.0255438
-0.0267955
-0.0280951
-0.0294412
-0.0308324
-0.0322667
-0.033742
-0.0352557
-0.036805
-0.038387
-0.0399983
-0.0416356
-0.0432954
-0.0449741
-0.0466681
-0.0483737
-0.0500874
-0.0518057
-0.0535252
-0.0552427
-0.0569549
-0.0586589
-0.0603516
-0.0620302
-0.0636918
-0.0653335
-0.0669524
-0.0685454
-0.0701094
-0.0716408
-0.073136
-0.0745909
-0.0760012
-0.077362
-0.0786682
-0.0799141
-0.0810939
-0.0822009
-0.0832284
-0.0841692
-0.0850159
-0.0857608
-0.0863958
-0.00712324
-0.0070755
-0.00703133
-0.00699191
-0.00695442
-0.00691842
-0.00688436
-0.00685262
-0.00682351
-0.00679739
-0.00677465
-0.00675575
-0.00674118
-0.00673147
-0.0067272
-0.006729
-0.00673752
-0.00675348
-0.0067776
-0.00681068
-0.00685352
-0.00690696
-0.00697189
-0.0070492
-0.00713982
-0.00724468
-0.00736477
-0.00750107
-0.00765458
-0.00782633
-0.00801736
-0.00822873
-0.00846154
-0.00871688
-0.0089959
-0.00929977
-0.00962969
-0.00998688
-0.0103726
-0.0107883
-0.0112351
-0.0117146
-0.0122281
-0.0127771
-0.013363
-0.0139874
-0.0146517
-0.0153574
-0.0161059
-0.0168984
-0.0177364
-0.0186209
-0.019553
-0.0205334
-0.0215629
-0.0226417
-0.0237702
-0.0249481
-0.026175
-0.0274502
-0.0287727
-0.0301409
-0.0315533
-0.0330077
-0.0345018
-0.036033
-0.0375982
-0.0391946
-0.0408186
-0.0424668
-0.0441357
-0.0458217
-0.0475211
-0.0492303
-0.0509457
-0.052664
-0.0543816
-0.0560953
-0.0578019
-0.0594983
-0.0611815
-0.0628485
-0.0644962
-0.0661215
-0.0677214
-0.0692924
-0.0708311
-0.0723336
-0.0737958
-0.0752133
-0.0765812
-0.0778943
-0.079147
-0.0803332
-0.0814465
-0.0824799
-0.0834263
-0.0842782
-0.0850277
-0.0856669
-0.00713312
-0.00708561
-0.00704154
-0.00700207
-0.00696436
-0.00692799
-0.00689339
-0.00686092
-0.00683086
-0.00680357
-0.00677941
-0.00675882
-0.00674227
-0.00673026
-0.00672336
-0.00672215
-0.00672728
-0.00673944
-0.00675934
-0.00678773
-0.00682541
-0.00687321
-0.00693199
-0.00700262
-0.00708602
-0.00718313
-0.0072949
-0.00742231
-0.00756636
-0.00772806
-0.00790845
-0.00810859
-0.00832955
-0.00857243
-0.00883837
-0.0091285
-0.00944403
-0.00978617
-0.0101562
-0.0105554
-0.0109851
-0.0114466
-0.0119415
-0.012471
-0.0130368
-0.0136403
-0.0142829
-0.0149661
-0.0156914
-0.0164602
-0.0172737
-0.0181331
-0.0190397
-0.0199942
-0.0209975
-0.0220501
-0.0231522
-0.0243038
-0.0255048
-0.0267546
-0.0280522
-0.0293964
-0.0307857
-0.0322182
-0.0336917
-0.0352037
-0.0367514
-0.0383318
-0.0399416
-0.0415776
-0.0432361
-0.0449135
-0.0466062
-0.0483106
-0.0500229
-0.0517397
-0.0534574
-0.0551727
-0.0568821
-0.0585825
-0.0602707
-0.0619435
-0.0635977
-0.0652301
-0.0668374
-0.0684162
-0.0699629
-0.0714734
-0.0729436
-0.0743691
-0.0757449
-0.0770657
-0.0783259
-0.0795193
-0.0806394
-0.0816794
-0.0826319
-0.0834895
-0.0842442
-0.0848881
-0.0071186
-0.00707149
-0.00702769
-0.00698832
-0.00695056
-0.00691399
-0.00687901
-0.00684596
-0.00681514
-0.00678684
-0.00676144
-0.00673932
-0.00672095
-0.00670681
-0.00669742
-0.00669336
-0.00669524
-0.00670372
-0.0067195
-0.0067433
-0.0067759
-0.0068181
-0.00687073
-0.00693467
-0.00701081
-0.00710007
-0.00720339
-0.00732174
-0.00745611
-0.0076075
-0.00777695
-0.00796549
-0.00817419
-0.00840416
-0.00865649
-0.00893235
-0.0092329
-0.00955935
-0.00991295
-0.010295
-0.0107068
-0.0111497
-0.0116251
-0.0121344
-0.0126792
-0.0132608
-0.0138808
-0.0145407
-0.0152419
-0.0159858
-0.0167739
-0.0176074
-0.0184874
-0.019415
-0.020391
-0.0214162
-0.0224909
-0.0236152
-0.0247892
-0.0260124
-0.027284
-0.0286031
-0.0299683
-0.0313778
-0.0328296
-0.0343214
-0.0358505
-0.0374141
-0.0390089
-0.0406318
-0.0422791
-0.0439474
-0.0456329
-0.047332
-0.0490409
-0.0507561
-0.0524738
-0.0541906
-0.0559031
-0.0576077
-0.0593012
-0.0609802
-0.0626414
-0.0642815
-0.0658969
-0.0674842
-0.0690395
-0.0705589
-0.072038
-0.0734723
-0.0748567
-0.076186
-0.0774544
-0.0786557
-0.0797835
-0.0808307
-0.08179
-0.0826539
-0.0834144
-0.0840634
-0.0070825
-0.00703596
-0.00699259
-0.00695347
-0.0069158
-0.00687917
-0.00684397
-0.00681052
-0.00677908
-0.00674995
-0.00672346
-0.0067
-0.00667997
-0.00666386
-0.00665215
-0.00664539
-0.00664418
-0.00664913
-0.00666091
-0.00668024
-0.00670784
-0.00674451
-0.00679106
-0.00684833
-0.00691719
-0.00699855
-0.00709334
-0.0072025
-0.00732702
-0.00746788
-0.00762611
-0.00780274
-0.00799883
-0.00821546
-0.00845374
-0.00871481
-0.00899983
-0.00930999
-0.00964654
-0.0100107
-0.0104039
-0.0108274
-0.0112826
-0.0117709
-0.0122938
-0.0128528
-0.0134493
-0.0140849
-0.0147611
-0.0154793
-0.016241
-0.0170475
-0.0179
-0.0187997
-0.0197475
-0.0207442
-0.0217904
-0.0228863
-0.0240322
-0.0252277
-0.0264723
-0.0277651
-0.029105
-0.0304904
-0.0319195
-0.03339
-0.0348996
-0.0364453
-0.0380243
-0.0396332
-0.0412687
-0.0429271
-0.0446048
-0.0462982
-0.0480033
-0.0497166
-0.0514343
-0.0531527
-0.0548682
-0.0565772
-0.0582763
-0.059962
-0.0616307
-0.063279
-0.0649033
-0.0664997
-0.0680645
-0.0695935
-0.0710823
-0.0725262
-0.0739201
-0.0752587
-0.0765362
-0.0777463
-0.0788824
-0.0799375
-0.0809044
-0.0817752
-0.082542
-0.0831968
-0.00702748
-0.00698165
-0.00693884
-0.0069001
-0.00686267
-0.00682613
-0.00679086
-0.00675716
-0.00672527
-0.00669546
-0.00666805
-0.00664339
-0.00662189
-0.00660397
-0.00659012
-0.00658083
-0.00657668
-0.00657825
-0.00658619
-0.00660117
-0.0066239
-0.00665514
-0.00669568
-0.00674632
-0.00680793
-0.00688139
-0.0069676
-0.00706749
-0.00718202
-0.00731219
-0.00745898
-0.00762343
-0.00780658
-0.00800951
-0.00823332
-0.00847914
-0.00874811
-0.00904143
-0.00936033
-0.00970606
-0.0100799
-0.0104833
-0.0109175
-0.011384
-0.0118842
-0.0124197
-0.012992
-0.0136025
-0.0142528
-0.0149444
-0.0156787
-0.0164573
-0.0172813
-0.018152
-0.0190706
-0.0200378
-0.0210545
-0.022121
-0.0232377
-0.0244044
-0.0256208
-0.0268863
-0.0281999
-0.0295601
-0.0309653
-0.0324136
-0.0339025
-0.0354295
-0.0369917
-0.0385858
-0.0402086
-0.0418565
-0.0435258
-0.0452129
-0.0469139
-0.048625
-0.0503423
-0.0520622
-0.0537808
-0.0554945
-0.0571995
-0.0588922
-0.0605689
-0.062226
-0.0638597
-0.0654661
-0.0670411
-0.0685805
-0.0700798
-0.0715342
-0.0729385
-0.0742873
-0.0755746
-0.0767943
-0.0779396
-0.0790035
-0.0799785
-0.080857
-0.0816309
-0.082292
-0.006956
-0.006911
-0.00686888
-0.00683064
-0.00679358
-0.00675726
-0.00672206
-0.00668824
-0.00665605
-0.00662572
-0.00659755
-0.00657187
-0.00654906
-0.00652951
-0.00651367
-0.00650203
-0.00649511
-0.00649347
-0.00649773
-0.00650851
-0.00652651
-0.00655245
-0.00658708
-0.00663118
-0.0066856
-0.00675117
-0.00682879
-0.00691936
-0.00702383
-0.00714317
-0.00727835
-0.00743039
-0.00760034
-0.00778925
-0.00799822
-0.00822836
-0.00848081
-0.00875678
-0.00905746
-0.00938412
-0.00973804
-0.0101206
-0.0105331
-0.0109771
-0.0114539
-0.0119651
-0.0125122
-0.0130967
-0.0137202
-0.0143843
-0.0150905
-0.0158402
-0.0166348
-0.0174757
-0.018364
-0.0193008
-0.0202869
-0.021323
-0.0224094
-0.0235463
-0.0247335
-0.0259706
-0.0272567
-0.0285906
-0.029971
-0.0313959
-0.0328633
-0.0343705
-0.0359149
-0.0374933
-0.0391026
-0.0407392
-0.0423995
-0.0440798
-0.0457761
-0.0474847
-0.0492015
-0.0509228
-0.0526445
-0.0543629
-0.056074
-0.0577741
-0.0594593
-0.0611257
-0.0627695
-0.0643864
-0.0659725
-0.0675231
-0.0690338
-0.0704995
-0.0719151
-0.0732749
-0.0745731
-0.0758032
-0.0769585
-0.078032
-0.079016
-0.0799029
-0.0806845
-0.0813525
-0.00687032
-0.00682626
-0.00678495
-0.00674732
-0.00671074
-0.00667477
-0.00663975
-0.00660597
-0.00657361
-0.00654291
-0.00651413
-0.0064876
-0.00646363
-0.00644263
-0.00642498
-0.00641116
-0.00640165
-0.00639698
-0.00639772
-0.00640447
-0.0064179
-0.00643867
-0.00646752
-0.00650519
-0.0065525
-0.00661025
-0.0066793
-0.00676055
-0.00685491
-0.00696333
-0.00708677
-0.00722624
-0.00738275
-0.00755736
-0.00775116
-0.00796524
-0.00820076
-0.00845888
-0.00874082
-0.00904784
-0.00938122
-0.0097423
-0.0101325
-0.0105531
-0.0110058
-0.0114919
-0.0120131
-0.0125708
-0.0131668
-0.0138025
-0.0144796
-0.0151995
-0.0159638
-0.0167739
-0.0176311
-0.0185365
-0.0194911
-0.0204957
-0.0215509
-0.022657
-0.0238139
-0.0250215
-0.0262791
-0.0275858
-0.0289402
-0.0303408
-0.0317855
-0.033272
-0.0347976
-0.0363595
-0.0379545
-0.039579
-0.0412296
-0.0429024
-0.0445937
-0.0462993
-0.0480154
-0.0497378
-0.0514626
-0.0531858
-0.0549032
-0.056611
-0.0583051
-0.0599814
-0.0616357
-0.063264
-0.0648617
-0.0664244
-0.0679473
-0.0694253
-0.070853
-0.0722249
-0.0735347
-0.0747762
-0.0759424
-0.0770262
-0.0780201
-0.0789162
-0.0797062
-0.0803819
-0.0067725
-0.00672949
-0.00668907
-0.00665217
-0.00661616
-0.00658065
-0.00654596
-0.00651232
-0.00647994
-0.00644901
-0.00641978
-0.00639254
-0.00636759
-0.00634529
-0.00632602
-0.00631019
-0.00629827
-0.00629074
-0.00628815
-0.00629105
-0.00630007
-0.00631584
-0.00633905
-0.00637043
-0.00641073
-0.00646075
-0.0065213
-0.00659325
-0.0066775
-0.00677495
-0.00688656
-0.00701331
-0.00715621
-0.00731629
-0.00749463
-0.00769233
-0.00791052
-0.00815037
-0.00841309
-0.00869993
-0.00901219
-0.00935119
-0.00971834
-0.0101151
-0.0105428
-0.0110032
-0.0114976
-0.0120278
-0.0125954
-0.0132019
-0.0138491
-0.0145384
-0.0152716
-0.01605
-0.0168751
-0.0177482
-0.0186704
-0.0196426
-0.0206656
-0.0217398
-0.0228656
-0.0240427
-0.0252708
-0.0265492
-0.0278767
-0.0292518
-0.0306729
-0.0321377
-0.0336437
-0.0351881
-0.0367679
-0.0383796
-0.0400197
-0.0416845
-0.0433701
-0.0450724
-0.0467873
-0.0485107
-0.0502385
-0.0519665
-0.0536904
-0.0554061
-0.0571094
-0.058796
-0.0604616
-0.0621018
-0.063712
-0.0652875
-0.0668234
-0.0683146
-0.0697554
-0.0711401
-0.0724626
-0.0737163
-0.0748943
-0.0759894
-0.0769939
-0.0778999
-0.0786992
-0.0793831
-0.00666443
-0.00662256
-0.00658314
-0.00654703
-0.00651171
-0.00647677
-0.0064425
-0.00640914
-0.00637685
-0.00634582
-0.00631628
-0.00628849
-0.00626271
-0.00623929
-0.00621856
-0.00620091
-0.00618675
-0.00617656
-0.00617081
-0.00617005
-0.00617484
-0.00618578
-0.00620353
-0.00622876
-0.00626219
-0.00630458
-0.00635672
-0.00641943
-0.00649358
-0.00658006
-0.00667979
-0.00679373
-0.00692287
-0.00706823
-0.00723088
-0.0074119
-0.00761242
-0.00783361
-0.00807666
-0.00834285
-0.00863345
-0.00894981
-0.00929333
-0.00966544
-0.0100676
-0.0105015
-0.0109685
-0.0114704
-0.0120088
-0.0125854
-0.0132018
-0.0138598
-0.0145609
-0.0153068
-0.0160991
-0.016939
-0.0178278
-0.0187668
-0.0197567
-0.0207982
-0.0218917
-0.0230375
-0.0242351
-0.0254842
-0.0267837
-0.0281326
-0.029529
-0.0309712
-0.0324566
-0.0339827
-0.0355464
-0.0371445
-0.0387735