/*--------------------------------*- C++ -*----------------------------------*\
| =========                 |                                                 |
| \\      /  F ield         | OpenFOAM: The Open Source CFD Toolbox           |
|  \\    /   O peration     | Version:  2406                                  |
|   \\  /    A nd           | Website:  www.openfoam.com                      |
|    \\/     M anipulation  |                                                 |
\*---------------------------------------------------------------------------*/
FoamFile
{
    version     2.0;
    format      ascii;
    arch        "LSB;label=32;scalar=64";
    class       surfaceScalarField;
    location    "19.975";
    object      phi;
}
// * * * * * * * * * * * * * * * * * * * * * * * * * * * * * * * * * * * * * //

dimensions      [0 3 -1 0 0 0 0];

oriented        oriented;

internalField   nonuniform List<scalar> 
79600
(
5.39153e-09
6.18911e-07
-6.24301e-07
1.9754e-08
1.85958e-06
-1.87394e-06
4.13077e-08
3.12203e-06
-3.14358e-06
6.8139e-08
4.40526e-06
-4.43209e-06
9.82144e-08
5.70809e-06
-5.73817e-06
1.29397e-07
7.02922e-06
-7.0604e-06
1.59468e-07
8.36721e-06
-8.39728e-06
1.86148e-07
9.72054e-06
-9.74722e-06
2.07119e-07
1.10876e-05
-1.11086e-05
2.20056e-07
1.24668e-05
-1.24797e-05
2.2265e-07
1.38563e-05
-1.38589e-05
2.12638e-07
1.52547e-05
-1.52447e-05
1.87837e-07
1.66602e-05
-1.66354e-05
1.46167e-07
1.80713e-05
-1.80296e-05
8.56848e-08
1.94867e-05
-1.94263e-05
4.61101e-09
2.09053e-05
-2.08242e-05
-9.86442e-08
2.23259e-05
-2.22227e-05
-2.25456e-07
2.3748e-05
-2.36211e-05
-3.76967e-07
2.51709e-05
-2.50194e-05
-5.54068e-07
2.65947e-05
-2.64176e-05
-7.57388e-07
2.80196e-05
-2.78162e-05
-9.87286e-07
2.9446e-05
-2.92161e-05
-1.24385e-06
3.08749e-05
-3.06183e-05
-1.5269e-06
3.23075e-05
-3.20245e-05
-1.83599e-06
3.37455e-05
-3.34364e-05
-2.17043e-06
3.51907e-05
-3.48563e-05
-2.52932e-06
3.66454e-05
-3.62865e-05
-2.91154e-06
3.81118e-05
-3.77296e-05
-3.31579e-06
3.95925e-05
-3.91882e-05
-3.74062e-06
4.10901e-05
-4.06652e-05
-4.18447e-06
4.26072e-05
-4.21633e-05
-4.6457e-06
4.41463e-05
-4.36851e-05
-5.12259e-06
4.571e-05
-4.52331e-05
-5.61341e-06
4.73001e-05
-4.68093e-05
-6.11642e-06
4.89187e-05
-4.84157e-05
-6.6299e-06
5.0567e-05
-5.00535e-05
-7.15216e-06
5.22458e-05
-5.17235e-05
-7.68159e-06
5.39555e-05
-5.34261e-05
-8.21661e-06
5.56958e-05
-5.51608e-05
-8.75574e-06
5.74655e-05
-5.69264e-05
-9.29754e-06
5.9263e-05
-5.87212e-05
-9.84065e-06
6.10857e-05
-6.05426e-05
-1.03838e-05
6.29303e-05
-6.23871e-05
-1.09257e-05
6.47926e-05
-6.42507e-05
-1.14652e-05
6.66679e-05
-6.61284e-05
-1.20011e-05
6.85503e-05
-6.80144e-05
-1.25324e-05
7.04336e-05
-6.99024e-05
-1.30579e-05
7.23106e-05
-7.17851e-05
-1.35766e-05
7.41734e-05
-7.36547e-05
-1.40875e-05
7.60137e-05
-7.55028e-05
-1.45896e-05
7.78224e-05
-7.73203e-05
-1.5082e-05
7.959e-05
-7.90977e-05
-1.55637e-05
8.13069e-05
-8.08252e-05
-1.60339e-05
8.29627e-05
-8.24925e-05
-1.6492e-05
8.45473e-05
-8.40893e-05
-1.69372e-05
8.60504e-05
-8.56052e-05
-1.7369e-05
8.74617e-05
-8.70299e-05
-1.7787e-05
8.87714e-05
-8.83533e-05
-1.81911e-05
8.997e-05
-8.95659e-05
-1.85811e-05
9.10486e-05
-9.06586e-05
-1.89572e-05
9.19992e-05
-9.16231e-05
-1.93196e-05
9.28147e-05
-9.24522e-05
-1.9669e-05
9.3489e-05
-9.31396e-05
-2.0006e-05
9.40174e-05
-9.36804e-05
-2.03316e-05
9.43964e-05
-9.40709e-05
-2.06469e-05
9.46242e-05
-9.43089e-05
-2.09533e-05
9.47e-05
-9.43937e-05
-2.12522e-05
9.46249e-05
-9.4326e-05
-2.15452e-05
9.4401e-05
-9.4108e-05
-2.18341e-05
9.4032e-05
-9.37431e-05
-2.21206e-05
9.35225e-05
-9.3236e-05
-2.24067e-05
9.2878e-05
-9.2592e-05
-2.2694e-05
9.21046e-05
-9.18173e-05
-2.29843e-05
9.12088e-05
-9.09184e-05
-2.32793e-05
9.01968e-05
-8.99018e-05
-2.35806e-05
8.90748e-05
-8.87735e-05
-2.38894e-05
8.7848e-05
-8.75391e-05
-2.4207e-05
8.65206e-05
-8.62031e-05
-2.45343e-05
8.50958e-05
-8.47684e-05
-2.48721e-05
8.35747e-05
-8.32369e-05
-2.5221e-05
8.19571e-05
-8.16082e-05
-2.55813e-05
8.02406e-05
-7.98803e-05
-2.59532e-05
7.84212e-05
-7.80494e-05
-2.63366e-05
7.64928e-05
-7.61094e-05
-2.67314e-05
7.44476e-05
-7.40528e-05
-2.71374e-05
7.22761e-05
-7.18701e-05
-2.75541e-05
6.99675e-05
-6.95507e-05
-2.79813e-05
6.75098e-05
-6.70826e-05
-2.84186e-05
6.48901e-05
-6.44528e-05
-2.88656e-05
6.20949e-05
-6.16479e-05
-2.9322e-05
5.91105e-05
-5.86541e-05
-2.97876e-05
5.5923e-05
-5.54574e-05
-3.02624e-05
5.25188e-05
-5.20441e-05
-3.07461e-05
4.88844e-05
-4.84006e-05
-3.12391e-05
4.50071e-05
-4.45141e-05
-3.17413e-05
4.08744e-05
-4.03722e-05
-3.22531e-05
3.64749e-05
-3.5963e-05
-3.27749e-05
3.17974e-05
-3.12756e-05
-3.33071e-05
2.68316e-05
-2.62994e-05
2.15678e-05
-3.38501e-05
-2.10247e-05
7.48247e-09
6.11428e-07
2.81027e-08
1.83896e-06
6.0123e-08
3.09001e-06
1.01664e-07
4.36372e-06
1.50715e-07
5.65904e-06
2.05152e-07
6.97478e-06
2.62749e-07
8.30961e-06
3.21205e-07
9.66208e-06
3.78165e-07
1.10307e-05
4.31241e-07
1.24137e-05
4.78046e-07
1.38095e-05
5.16218e-07
1.52165e-05
5.4345e-07
1.66329e-05
5.57524e-07
1.80572e-05
5.56337e-07
1.94879e-05
5.37935e-07
2.09237e-05
5.00539e-07
2.23633e-05
4.42574e-07
2.38059e-05
3.6269e-07
2.52508e-05
2.59784e-07
2.66976e-05
1.33013e-07
2.81463e-05
-1.81887e-08
2.95972e-05
-1.94111e-07
3.10508e-05
-3.94762e-07
3.25082e-05
-6.19878e-07
3.39706e-05
-8.68931e-07
3.54398e-05
-1.14114e-06
3.69176e-05
-1.43552e-06
3.84061e-05
-1.75086e-06
3.99078e-05
-2.08579e-06
4.1425e-05
-2.43881e-06
4.29602e-05
-2.80829e-06
4.45158e-05
-3.19255e-06
4.60942e-05
-3.58986e-06
4.76975e-05
-3.99848e-06
4.93273e-05
-4.41669e-06
5.09852e-05
-4.8428e-06
5.26719e-05
-5.2752e-06
5.43879e-05
-5.71232e-06
5.61329e-05
-6.15271e-06
5.79059e-05
-6.59499e-06
5.97053e-05
-7.03788e-06
6.15286e-05
-7.48017e-06
6.33726e-05
-7.92076e-06
6.52332e-05
-8.35862e-06
6.71057e-05
-8.79278e-06
6.89845e-05
-9.22235e-06
7.08632e-05
-9.6465e-06
7.27347e-05
-1.00644e-05
7.45914e-05
-1.04754e-05
7.64247e-05
-1.08788e-05
7.82258e-05
-1.1274e-05
7.99852e-05
-1.16605e-05
8.16933e-05
-1.20377e-05
8.33399e-05
-1.24052e-05
8.49149e-05
-1.27629e-05
8.6408e-05
-1.31104e-05
8.78092e-05
-1.34477e-05
8.91087e-05
-1.37749e-05
9.02971e-05
-1.40921e-05
9.13658e-05
-1.43997e-05
9.23068e-05
-1.46981e-05
9.31131e-05
-1.4988e-05
9.37789e-05
-1.52702e-05
9.42995e-05
-1.55455e-05
9.46718e-05
-1.58151e-05
9.48937e-05
-1.608e-05
9.4965e-05
-1.63417e-05
9.48865e-05
-1.66012e-05
9.46606e-05
-1.68602e-05
9.4291e-05
-1.71198e-05
9.37822e-05
-1.73815e-05
9.31397e-05
-1.76466e-05
9.23697e-05
-1.79163e-05
9.14785e-05
-1.81917e-05
9.04723e-05
-1.8474e-05
8.9357e-05
-1.87639e-05
8.81379e-05
-1.90622e-05
8.68189e-05
-1.93694e-05
8.5403e-05
-1.96861e-05
8.38914e-05
-2.00124e-05
8.22834e-05
-2.03486e-05
8.05768e-05
-2.06947e-05
7.87673e-05
-2.10507e-05
7.68488e-05
-2.14164e-05
7.48133e-05
-2.17919e-05
7.26515e-05
-2.21768e-05
7.03524e-05
-2.25713e-05
6.79042e-05
-2.29751e-05
6.52939e-05
-2.33884e-05
6.25082e-05
-2.38112e-05
5.95333e-05
-2.42437e-05
5.63556e-05
-2.46862e-05
5.29613e-05
-2.51391e-05
4.93373e-05
-2.56029e-05
4.54708e-05
-2.6078e-05
4.13496e-05
-2.65653e-05
3.69621e-05
-2.70654e-05
3.22974e-05
-2.7579e-05
2.73452e-05
2.20957e-05
-2.81069e-05
9.35856e-09
6.02069e-07
3.56153e-08
1.8127e-06
7.70969e-08
3.04853e-06
1.31982e-07
4.30883e-06
1.98311e-07
5.59271e-06
2.73994e-07
6.8991e-06
3.56834e-07
8.22677e-06
4.44539e-07
9.57438e-06
5.34742e-07
1.09404e-05
6.25033e-07
1.23234e-05
7.12973e-07
1.37216e-05
7.96134e-07
1.51333e-05
8.72117e-07
1.65569e-05
9.38594e-07
1.79908e-05
9.93331e-07
1.94332e-05
1.03422e-06
2.08828e-05
1.05932e-06
2.23382e-05
1.06686e-06
2.37984e-05
1.05531e-06
2.52624e-05
1.02336e-06
2.67296e-05
9.69953e-07
2.81997e-05
8.94315e-07
2.96728e-05
7.95953e-07
3.11491e-05
6.74657e-07
3.26295e-05
5.30504e-07
3.41148e-05
3.63846e-07
3.56065e-05
1.753e-07
3.71061e-05
-3.42718e-08
3.86157e-05
-2.63789e-07
4.01373e-05
-5.1198e-07
4.16732e-05
-7.77409e-07
4.32256e-05
-1.05852e-06
4.47969e-05
-1.35366e-06
4.63894e-05
-1.66113e-06
4.80049e-05
-1.97919e-06
4.96454e-05
-2.30615e-06
5.13121e-05
-2.6403e-06
5.30061e-05
-2.98004e-06
5.47277e-05
-3.32384e-06
5.64767e-05
-3.67025e-06
5.82523e-05
-4.01794e-06
6.0053e-05
-4.3657e-06
6.18763e-05
-4.71241e-06
6.37193e-05
-5.05707e-06
6.55779e-05
-5.39879e-06
6.74474e-05
-5.73678e-06
6.93225e-05
-6.07034e-06
7.11968e-05
-6.39885e-06
7.30632e-05
-6.72178e-06
7.49143e-05
-7.03868e-06
7.67416e-05
-7.34916e-06
7.85362e-05
-7.6529e-06
8.0289e-05
-7.94968e-06
8.19901e-05
-8.23934e-06
8.36296e-05
-8.5218e-06
8.51974e-05
-8.79707e-06
8.66833e-05
-9.06526e-06
8.80774e-05
-9.32656e-06
8.937e-05
-9.58128e-06
9.05519e-05
-9.82982e-06
9.16143e-05
-1.00727e-05
9.25496e-05
-1.03105e-05
9.33509e-05
-1.0544e-05
9.40124e-05
-1.0774e-05
9.45295e-05
-1.10013e-05
9.48991e-05
-1.12269e-05
9.51194e-05
-1.14518e-05
9.51899e-05
-1.16771e-05
9.51117e-05
-1.19037e-05
9.48872e-05
-1.21328e-05
9.452e-05
-1.23652e-05
9.40146e-05
-1.26019e-05
9.33764e-05
-1.28438e-05
9.26116e-05
-1.30916e-05
9.17263e-05
-1.33461e-05
9.07267e-05
-1.36077e-05
8.96186e-05
-1.38769e-05
8.84071e-05
-1.4154e-05
8.70961e-05
-1.44393e-05
8.56883e-05
-1.47328e-05
8.41849e-05
-1.50347e-05
8.25853e-05
-1.5345e-05
8.08871e-05
-1.56636e-05
7.90859e-05
-1.59906e-05
7.71757e-05
-1.63258e-05
7.51486e-05
-1.66695e-05
7.29951e-05
-1.70215e-05
7.07045e-05
-1.73822e-05
6.82649e-05
-1.77517e-05
6.56634e-05
-1.81305e-05
6.2887e-05
-1.85191e-05
5.99218e-05
-1.89179e-05
5.67544e-05
-1.93277e-05
5.33711e-05
-1.97493e-05
4.97589e-05
-2.01835e-05
4.5905e-05
-2.06312e-05
4.17973e-05
-2.10934e-05
3.74244e-05
-2.15712e-05
3.27752e-05
-2.20657e-05
2.78396e-05
2.26079e-05
-2.25779e-05
1.10197e-08
5.9105e-07
4.22917e-08
1.78143e-06
9.22257e-08
2.99859e-06
1.5908e-07
4.24198e-06
2.40965e-07
5.51083e-06
3.35858e-07
6.8042e-06
4.41611e-07
8.12102e-06
5.5597e-07
9.46002e-06
6.76591e-07
1.08198e-05
8.01065e-07
1.21989e-05
9.2694e-07
1.35957e-05
1.05175e-06
1.50085e-05
1.17303e-06
1.64357e-05
1.28838e-06
1.78754e-05
1.39546e-06
1.93261e-05
1.49203e-06
2.07862e-05
1.57601e-06
2.22542e-05
1.64547e-06
2.37289e-05
1.69869e-06
2.52092e-05
1.73417e-06
2.66941e-05
1.75066e-06
2.81832e-05
1.74718e-06
2.96763e-05
1.72303e-06
3.11733e-05
1.67778e-06
3.26747e-05
1.61133e-06
3.41812e-05
1.52383e-06
3.5694e-05
1.41573e-06
3.72142e-05
1.28773e-06
3.87437e-05
1.14078e-06
4.02843e-05
9.76022e-07
4.18379e-05
7.94802e-07
4.34068e-05
5.98598e-07
4.49931e-05
3.89001e-07
4.6599e-05
1.67675e-07
4.82263e-05
-6.36821e-08
4.98767e-05
-3.0337e-07
5.15518e-05
-5.49723e-07
5.32524e-05
-8.01135e-07
5.49791e-05
-1.05609e-06
5.67317e-05
-1.31316e-06
5.85094e-05
-1.57106e-06
6.03109e-05
-1.82862e-06
6.21339e-05
-2.08479e-06
6.39754e-05
-2.33869e-06
6.58318e-05
-2.58953e-06
6.76983e-05
-2.83667e-06
6.95696e-05
-3.07958e-06
7.14397e-05
-3.31784e-06
7.33015e-05
-3.55115e-06
7.51476e-05
-3.77928e-06
7.69697e-05
-4.00211e-06
7.87591e-05
-4.2196e-06
8.05065e-05
-4.4318e-06
8.22023e-05
-4.63885e-06
8.38366e-05
-4.84095e-06
8.53995e-05
-5.03838e-06
8.68808e-05
-5.23154e-06
8.82706e-05
-5.42086e-06
8.95593e-05
-5.60687e-06
9.07379e-05
-5.79018e-06
9.17977e-05
-5.97146e-06
9.27309e-05
-6.15143e-06
9.35309e-05
-6.33087e-06
9.41918e-05
-6.51061e-06
9.47093e-05
-6.69149e-06
9.508e-05
-6.87436e-06
9.53022e-05
-7.06006e-06
9.53756e-05
-7.24941e-06
9.53011e-05
-7.44318e-06
9.5081e-05
-7.64207e-06
9.47189e-05
-7.84671e-06
9.42192e-05
-8.05764e-06
9.35874e-05
-8.27531e-06
9.28293e-05
-8.50005e-06
9.1951e-05
-8.7321e-06
9.09588e-05
-8.97158e-06
8.98581e-05
-9.21853e-06
8.8654e-05
-9.47294e-06
8.73505e-05
-9.7347e-06
8.59501e-05
-1.00037e-05
8.44539e-05
-1.02798e-05
8.28614e-05
-1.05629e-05
8.11702e-05
-1.08529e-05
7.93759e-05
-1.11498e-05
7.74726e-05
-1.14537e-05
7.54525e-05
-1.17647e-05
7.33061e-05
-1.20832e-05
7.1023e-05
-1.24096e-05
6.85913e-05
-1.27445e-05
6.59983e-05
-1.30885e-05
6.3231e-05
-1.34425e-05
6.02759e-05
-1.38075e-05
5.71193e-05
-1.41844e-05
5.3748e-05
-1.45744e-05
5.01489e-05
-1.49788e-05
4.63094e-05
-1.53988e-05
4.22173e-05
-1.58357e-05
3.78613e-05
-1.62909e-05
3.32304e-05
-1.67657e-05
2.83145e-05
2.31038e-05
-1.72616e-05
1.24698e-08
5.7858e-07
4.81446e-08
1.74575e-06
1.05533e-07
2.9412e-06
1.8299e-07
4.16452e-06
2.78719e-07
5.4151e-06
3.90782e-07
6.69214e-06
5.17107e-07
7.99469e-06
6.55502e-07
9.32163e-06
8.03676e-07
1.06717e-05
9.59248e-07
1.20434e-05
1.11978e-06
1.34352e-05
1.2828e-06
1.48455e-05
1.44582e-06
1.62726e-05
1.60638e-06
1.77149e-05
1.76206e-06
1.91704e-05
1.91053e-06
2.06377e-05
2.04959e-06
2.21152e-05
2.17717e-06
2.36013e-05
2.29138e-06
2.50949e-05
2.39055e-06
2.65949e-05
2.47325e-06
2.81005e-05
2.53829e-06
2.96112e-05
2.58476e-06
3.11268e-05
2.61205e-06
3.26474e-05
2.61983e-06
3.41735e-05
2.60806e-06
3.57057e-05
2.577e-06
3.72453e-05
2.52719e-06
3.87935e-05
2.45941e-06
4.03521e-05
2.37467e-06
4.19227e-05
2.2742e-06
4.35073e-05
2.15937e-06
4.5108e-05
2.03171e-06
4.67266e-05
1.89282e-06
4.83651e-05
1.74435e-06
5.00252e-05
1.58797e-06
5.17082e-05
1.42533e-06
5.34151e-05
1.25803e-06
5.51464e-05
1.08756e-06
5.69021e-05
9.15323e-07
5.86816e-05
7.4259e-07
6.04836e-05
5.70487e-07
6.2306e-05
3.99992e-07
6.41459e-05
2.3193e-07
6.59998e-05
6.6974e-08
6.78632e-05
-9.43533e-08
6.9731e-05
-2.51671e-07
7.1597e-05
-4.04734e-07
7.34546e-05
-5.53422e-07
7.52963e-05
-6.97734e-07
7.7114e-05
-8.37777e-07
7.88991e-05
-9.73759e-07
8.06425e-05
-1.10598e-06
8.23345e-05
-1.23483e-06
8.39655e-05
-1.36078e-06
8.55254e-05
-1.48438e-06
8.70044e-05
-1.60624e-06
8.83924e-05
-1.72704e-06
8.96801e-05
-1.84752e-06
9.08583e-05
-1.96844e-06
9.19186e-05
-2.09062e-06
9.28531e-05
-2.21489e-06
9.36552e-05
-2.34209e-06
9.4319e-05
-2.47306e-06
9.48402e-05
-2.60859e-06
9.52155e-05
-2.74945e-06
9.54431e-05
-2.89633e-06
9.55225e-05
-3.04985e-06
9.54546e-05
-3.21055e-06
9.52417e-05
-3.37882e-06
9.48871e-05
-3.55499e-06
9.43954e-05
-3.73924e-06
9.37716e-05
-3.93161e-06
9.30217e-05
-4.13206e-06
9.21515e-05
-4.34045e-06
9.11671e-05
-4.55651e-06
9.00742e-05
-4.77993e-06
8.88774e-05
-5.01036e-06
8.75809e-05
-5.24741e-06
8.61871e-05
-5.49075e-06
8.46973e-05
-5.74005e-06
8.31107e-05
-5.99509e-06
8.14252e-05
-6.25576e-06
7.96366e-05
-6.52204e-06
7.77389e-05
-6.79412e-06
7.57245e-05
-7.07229e-06
7.35843e-05
-7.35708e-06
7.13078e-05
-7.64913e-06
6.88833e-05
-7.9493e-06
6.62985e-05
-8.25859e-06
6.35403e-05
-8.57815e-06
6.05954e-05
-8.90927e-06
5.74504e-05
-9.25333e-06
5.40921e-05
-9.61185e-06
5.05074e-05
-9.98636e-06
4.66839e-05
-1.03785e-05
4.26094e-05
-1.07899e-05
3.82726e-05
-1.12222e-05
3.36627e-05
-1.1677e-05
2.87693e-05
2.35829e-05
-1.21561e-05
1.37155e-08
5.64864e-07
5.3197e-08
1.70627e-06
1.17065e-07
2.87734e-06
2.03786e-07
4.0778e-06
3.11674e-07
5.30721e-06
4.38893e-07
6.56492e-06
5.83469e-07
7.85012e-06
7.43298e-07
9.1618e-06
9.16159e-07
1.04988e-05
1.09973e-06
1.18598e-05
1.29162e-06
1.32433e-05
1.48937e-06
1.46478e-05
1.6905e-06
1.60715e-05
1.89251e-06
1.75128e-05
2.09296e-06
1.897e-05
2.28943e-06
2.04413e-05
2.47963e-06
2.1925e-05
2.66138e-06
2.34196e-05
2.83264e-06
2.49237e-05
2.9916e-06
2.6436e-05
3.13663e-06
2.79555e-05
3.26636e-06
2.94815e-05
3.3797e-06
3.10135e-05
3.47581e-06
3.25513e-05
3.55417e-06
3.40951e-05
3.61455e-06
3.56454e-05
3.65699e-06
3.72028e-05
3.68185e-06
3.87687e-05
3.68974e-06
4.03442e-05
3.68152e-06
4.19309e-05
3.65827e-06
4.35306e-05
3.62126e-06
4.5145e-05
3.57192e-06
4.6776e-05
3.51177e-06
4.84253e-05
3.4424e-06
5.00946e-05
3.36545e-06
5.17851e-05
3.28253e-06
5.3498e-05
3.19522e-06
5.52337e-05
3.10501e-06
5.69923e-05
3.01327e-06
5.87734e-05
2.92125e-06
6.05756e-05
2.83005e-06
6.23972e-05
2.74061e-06
6.42354e-05
2.65368e-06
6.60867e-05
2.56987e-06
6.79471e-05
2.48959e-06
6.98112e-05
2.41311e-06
7.16735e-05
2.34051e-06
7.35272e-05
2.27176e-06
7.5365e-05
2.20667e-06
7.71791e-05
2.14493e-06
7.89609e-05
2.08611e-06
8.07013e-05
2.02969e-06
8.23909e-05
1.97505e-06
8.40201e-05
1.92147e-06
8.5579e-05
1.86818e-06
8.70576e-05
1.81435e-06
8.84463e-05
1.75909e-06
8.97354e-05
1.70149e-06
9.0916e-05
1.64059e-06
9.19795e-05
1.57547e-06
9.29182e-05
1.5052e-06
9.37254e-05
1.42887e-06
9.43954e-05
1.34565e-06
9.49234e-05
1.25477e-06
9.53064e-05
1.15553e-06
9.55423e-05
1.04738e-06
9.56306e-05
9.29868e-07
9.55721e-05
8.02679e-07
9.53689e-05
6.65656e-07
9.50242e-05
5.18784e-07
9.45422e-05
3.62201e-07
9.39282e-05
1.96177e-07
9.31877e-05
2.111e-08
9.23266e-05
-1.62432e-07
9.13507e-05
-3.5392e-07
9.02656e-05
-5.52711e-07
8.90762e-05
-7.58146e-07
8.77863e-05
-9.69594e-07
8.63986e-05
-1.18649e-06
8.49142e-05
-1.40836e-06
8.33326e-05
-1.63488e-06
8.16517e-05
-1.86587e-06
7.98676e-05
-2.10136e-06
7.79744e-05
-2.34156e-06
7.59647e-05
-2.58694e-06
7.38297e-05
-2.83815e-06
7.1559e-05
-3.09608e-06
6.91412e-05
-3.36184e-06
6.65642e-05
-3.6367e-06
6.38152e-05
-3.92212e-06
6.08808e-05
-4.21971e-06
5.7748e-05
-4.53116e-06
5.44036e-05
-4.85837e-06
5.08347e-05
-5.20314e-06
4.70287e-05
-5.56743e-06
4.29737e-05
-5.95319e-06
3.86584e-05
-6.36238e-06
3.40719e-05
-6.79695e-06
2.92039e-05
2.40448e-05
-7.25883e-06
1.4765e-08
5.50099e-07
5.74797e-08
1.66356e-06
1.26886e-07
2.80793e-06
2.21575e-07
3.98311e-06
3.39982e-07
5.1888e-06
4.80393e-07
6.42451e-06
6.40947e-07
7.68956e-06
8.19647e-07
8.9831e-06
1.01437e-06
1.03041e-05
1.22287e-06
1.16513e-05
1.44282e-06
1.30233e-05
1.67182e-06
1.44188e-05
1.90741e-06
1.58359e-05
2.1471e-06
1.72731e-05
2.38842e-06
1.87287e-05
2.62892e-06
2.02008e-05
2.86623e-06
2.16877e-05
3.09808e-06
2.31877e-05
3.32234e-06
2.46994e-05
3.53703e-06
2.62213e-05
3.74037e-06
2.77522e-05
3.93084e-06
2.9291e-05
4.10713e-06
3.08372e-05
4.26822e-06
3.23902e-05
4.41338e-06
3.39499e-05
4.54217e-06
3.55166e-05
4.65444e-06
3.70906e-05
4.75035e-06
3.86728e-05
4.83033e-06
4.02642e-05
4.89506e-06
4.18662e-05
4.94547e-06
4.34801e-05
4.98271e-06
4.51077e-05
5.00807e-06
4.67506e-05
5.023e-06
4.84104e-05
5.02901e-06
5.00886e-05
5.02769e-06
5.17864e-05
5.0206e-06
5.35051e-05
5.0093e-06
5.5245e-05
4.99526e-06
5.70064e-05
4.97984e-06
5.87888e-05
4.96427e-06
6.05912e-05
4.94963e-06
6.24118e-05
4.93682e-06
6.42482e-05
4.92657e-06
6.6097e-05
4.9194e-06
6.79542e-05
4.91567e-06
6.9815e-05
4.91552e-06
7.16736e-05
4.91895e-06
7.35237e-05
4.92576e-06
7.53582e-05
4.93561e-06
7.71692e-05
4.94802e-06
7.89485e-05
4.96237e-06
8.06869e-05
4.97792e-06
8.23754e-05
4.99386e-06
8.40042e-05
5.00926e-06
8.55636e-05
5.02315e-06
8.70438e-05
5.03447e-06
8.84349e-05
5.04217e-06
8.97277e-05
5.04514e-06
9.0913e-05
5.04231e-06
9.19823e-05
5.03259e-06
9.29279e-05
5.01499e-06
9.3743e-05
4.98853e-06
9.44218e-05
4.95236e-06
9.49596e-05
4.90572e-06
9.5353e-05
4.848e-06
9.56e-05
4.77874e-06
9.56999e-05
4.69762e-06
9.56532e-05
4.60453e-06
9.5462e-05
4.49954e-06
9.51292e-05
4.38287e-06
9.46589e-05
4.25495e-06
9.40561e-05
4.11636e-06
9.33263e-05
3.96782e-06
9.24751e-05
3.81011e-06
9.15084e-05
3.64418e-06
9.04316e-05
3.47092e-06
8.92495e-05
3.29128e-06
8.7966e-05
3.10611e-06
8.65837e-05
2.91617e-06
8.51041e-05
2.72209e-06
8.35267e-05
2.5243e-06
8.18495e-05
2.32302e-06
8.00689e-05
2.11824e-06
7.81792e-05
1.90966e-06
7.61733e-05
1.69674e-06
7.40426e-05
1.47867e-06
7.17771e-05
1.25435e-06
6.93656e-05
1.02247e-06
6.67961e-05
7.81491e-07
6.40561e-05
5.29667e-07
6.11327e-05
2.65092e-07
5.80126e-05
-1.42845e-08
5.46829e-05
-3.10419e-07
5.11308e-05
-6.25675e-07
4.73439e-05
-9.62257e-07
4.33103e-05
-1.32241e-06
3.90186e-05
-1.70837e-06
3.44579e-05
-2.12239e-06
2.96179e-05
2.4489e-05
-2.56665e-06
1.56285e-08
5.34471e-07
6.10302e-08
1.61815e-06
1.35077e-07
2.73388e-06
2.3649e-07
3.8817e-06
3.6384e-07
5.06145e-06
5.15544e-07
6.27281e-06
6.89872e-07
7.51524e-06
8.84948e-07
8.78802e-06
1.09876e-06
1.00903e-05
1.32918e-06
1.14209e-05
1.57395e-06
1.27786e-05
1.83075e-06
1.4162e-05
2.09717e-06
1.55695e-05
2.37075e-06
1.69996e-05
2.64904e-06
1.84504e-05
2.92957e-06
1.99202e-05
3.20992e-06
2.14073e-05
3.48777e-06
2.29099e-05
3.76087e-06
2.44263e-05
4.02715e-06
2.5955e-05
4.2847e-06
2.74946e-05
4.53182e-06
2.90439e-05
4.76703e-06
3.0602e-05
4.98914e-06
3.21681e-05
5.1972e-06
3.37419e-05
5.39057e-06
3.53232e-05
5.56891e-06
3.69122e-05
5.73216e-06
3.85095e-05
5.88057e-06
4.01158e-05
6.01463e-06
4.17321e-05
6.13512e-06
4.33596e-05
6.24301e-06
4.49998e-05
6.33948e-06
4.66541e-05
6.42587e-06
4.8324e-05
6.5036e-06
5.00108e-05
6.57419e-06
5.17159e-05
6.63916e-06
5.34401e-05
6.70002e-06
5.51841e-05
6.75822e-06
5.69482e-05
6.8151e-06
5.87319e-05
6.8719e-06
6.05344e-05
6.92966e-06
6.23541e-05
6.98929e-06
6.41886e-05
7.05146e-06
6.60348e-05
7.11668e-06
6.7889e-05
7.18523e-06
6.97464e-05
7.2572e-06
7.16017e-05
7.33246e-06
7.34485e-05
7.41073e-06
7.52799e-05
7.49152e-06
7.70885e-05
7.57421e-06
7.88658e-05
7.65801e-06
8.06031e-05
7.74202e-06
8.22914e-05
7.82523e-06
8.3921e-05
7.90653e-06
8.54823e-05
7.98476e-06
8.69655e-05
8.05868e-06
8.8361e-05
8.12706e-06
8.96593e-05
8.18864e-06
9.08514e-05
8.24219e-06
9.19287e-05
8.28653e-06
9.28836e-05
8.32055e-06
9.3709e-05
8.34321e-06
9.43991e-05
8.35365e-06
9.49492e-05
8.3511e-06
9.53556e-05
8.33499e-06
9.56162e-05
8.30494e-06
9.573e-05
8.26077e-06
9.56974e-05
8.2025e-06
9.55202e-05
8.13039e-06
9.52013e-05
8.04489e-06
9.47444e-05
7.94666e-06
9.41543e-05
7.83654e-06
9.34364e-05
7.71551e-06
9.25961e-05
7.58468e-06
9.16392e-05
7.44521e-06
9.05711e-05
7.29829e-06
8.93964e-05
7.14509e-06
8.81192e-05
6.98669e-06
8.67421e-05
6.82404e-06
8.52667e-05
6.6579e-06
8.36928e-05
6.48883e-06
8.20186e-05
6.31708e-06
8.02406e-05
6.14267e-06
7.83536e-05
5.96526e-06
7.63507e-05
5.78423e-06
7.42236e-05
5.59864e-06
7.19627e-05
5.40723e-06
6.9557e-05
5.2085e-06
6.69949e-05
5.00066e-06
6.4264e-05
4.78174e-06
6.13516e-05
4.54958e-06
5.82448e-05
4.30188e-06
5.49306e-05
4.03616e-06
5.13965e-05
3.75e-06
4.76301e-05
3.44086e-06
4.36194e-05
3.10621e-06
3.93532e-05
2.74349e-06
3.48206e-05
2.35021e-06
3.00112e-05
2.49153e-05
1.92391e-06
1.63173e-08
5.18154e-07
6.38906e-08
1.57058e-06
1.41725e-07
2.65605e-06
2.48682e-07
3.77474e-06
3.83472e-07
4.92666e-06
5.44654e-07
6.11162e-06
7.30638e-07
7.32925e-06
9.39686e-07
8.57898e-06
1.16991e-06
9.86003e-06
1.41931e-06
1.11715e-05
1.68574e-06
1.25121e-05
1.96695e-06
1.38807e-05
2.26063e-06
1.52758e-05
2.56438e-06
1.66958e-05
2.87575e-06
1.8139e-05
3.19231e-06
1.96037e-05
3.51163e-06
2.1088e-05
3.83132e-06
2.25902e-05
4.14909e-06
2.41085e-05
4.46278e-06
2.56413e-05
4.77034e-06
2.71871e-05
5.06995e-06
2.87443e-05
5.35998e-06
3.0312e-05
5.63904e-06
3.18891e-05
5.90601e-06
3.34749e-05
6.16005e-06
3.50691e-05
6.40061e-06
3.66717e-05
6.62743e-06
3.82827e-05
6.84055e-06
3.99027e-05
7.04029e-06
4.15324e-05
7.22723e-06
4.31727e-05
7.4022e-06
4.48249e-05
7.56621e-06
4.64901e-05
7.72048e-06
4.81697e-05
7.86634e-06
4.9865e-05
8.00522e-06
5.1577e-05
8.13857e-06
5.33067e-05
8.26787e-06
5.50548e-05
8.39453e-06
5.68215e-05
8.51988e-06
5.86066e-05
8.64514e-06
6.04092e-05
8.77136e-06
6.22278e-05
8.89942e-06
6.40605e-05
9.03e-06
6.59042e-05
9.16356e-06
6.77554e-05
9.30036e-06
6.96096e-05
9.44043e-06
7.14616e-05
9.58359e-06
7.33053e-05
9.72945e-06
7.51341e-05
9.87743e-06
7.69405e-05
1.00268e-05
7.87164e-05
1.01766e-05
8.04533e-05
1.03258e-05
8.21422e-05
1.04732e-05
8.37736e-05
1.06176e-05
8.53379e-05
1.07575e-05
8.68255e-05
1.08918e-05
8.82268e-05
1.10188e-05
8.95323e-05
1.11373e-05
9.07329e-05
1.12458e-05
9.18202e-05
1.1343e-05
9.27863e-05
1.14278e-05
9.36242e-05
1.14991e-05
9.43279e-05
1.15559e-05
9.48924e-05
1.15974e-05
9.5314e-05
1.16232e-05
9.55904e-05
1.16328e-05
9.57203e-05
1.16262e-05
9.5704e-05
1.16036e-05
9.55429e-05
1.15653e-05
9.52396e-05
1.1512e-05
9.47977e-05
1.14445e-05
9.42218e-05
1.13639e-05
9.3517e-05
1.12714e-05
9.26886e-05
1.11684e-05
9.17423e-05
1.10562e-05
9.06832e-05
1.09363e-05
8.95163e-05
1.08101e-05
8.82454e-05
1.06788e-05
8.68734e-05
1.05437e-05
8.54019e-05
1.04055e-05
8.3831e-05
1.0265e-05
8.21592e-05
1.01224e-05
8.03832e-05
9.97788e-06
7.84981e-05
9.83102e-06
7.64976e-05
9.68114e-06
7.43735e-05
9.5272e-06
7.21166e-05
9.36784e-06
6.97163e-05
9.20135e-06
6.71613e-05
9.02577e-06
6.44396e-05
8.8389e-06
6.15385e-05
8.63833e-06
5.84453e-05
8.42149e-06
5.51475e-05
8.18568e-06
5.16323e-05
7.92817e-06
4.78876e-05
7.64614e-06
4.39015e-05
7.33677e-06
3.96626e-05
6.99727e-06
3.51601e-05
6.62484e-06
3.03836e-05
2.53234e-05
6.21677e-06
1.68432e-08
5.0131e-07
6.61063e-08
1.52132e-06
1.46931e-07
2.57522e-06
2.58318e-07
3.66335e-06
3.99127e-07
4.78585e-06
5.68066e-07
5.94269e-06
7.63691e-07
7.13363e-06
9.8441e-07
8.35826e-06
1.22848e-06
9.61596e-06
1.49403e-06
1.09059e-05
1.77905e-06
1.22271e-05
2.0814e-06
1.35784e-05
2.39885e-06
1.49584e-05
2.72908e-06
1.63656e-05
3.06973e-06
1.77984e-05
3.41837e-06
1.9255e-05
3.77259e-06
2.07338e-05
4.13e-06
2.22328e-05
4.48826e-06
2.37503e-05
4.84513e-06
2.52845e-05
5.19849e-06
2.68337e-05
5.54639e-06
2.83964e-05
5.88706e-06
2.99713e-05
6.21896e-06
3.15572e-05
6.54078e-06
3.31531e-05
6.85151e-06
3.47584e-05
7.15038e-06
3.63728e-05
7.43694e-06
3.79961e-05
7.71102e-06
3.96286e-05
7.97274e-06
4.12706e-05
8.22251e-06
4.29229e-05
8.46095e-06
4.45864e-05
8.68896e-06
4.62621e-05
8.90758e-06
4.79511e-05
9.11804e-06
4.96545e-05
9.32166e-06
5.13734e-05
9.51984e-06
5.31086e-05
9.71398e-06
5.48607e-05
9.90546e-06
5.663e-05
1.00956e-05
5.84164e-05
1.02856e-05
6.02192e-05
1.04765e-05
6.20369e-05
1.06692e-05
6.38678e-05
1.08644e-05
6.57091e-05
1.10624e-05
6.75574e-05
1.12637e-05
6.94084e-05
1.14681e-05
7.12572e-05
1.16754e-05
7.3098e-05
1.18852e-05
7.49243e-05
1.20968e-05
7.67288e-05
1.23094e-05
7.85038e-05
1.2522e-05
8.02408e-05
1.27333e-05
8.19309e-05
1.2942e-05
8.35648e-05
1.31469e-05
8.51331e-05
1.33462e-05
8.66262e-05
1.35386e-05
8.80344e-05
1.37225e-05
8.93484e-05
1.38963e-05
9.05591e-05
1.40585e-05
9.1658e-05
1.42078e-05
9.26371e-05
1.43427e-05
9.34893e-05
1.44622e-05
9.42084e-05
1.45652e-05
9.47894e-05
1.46509e-05
9.52283e-05
1.47189e-05
9.55224e-05
1.47688e-05
9.56704e-05
1.48006e-05
9.56722e-05
1.48144e-05
9.5529e-05
1.48109e-05
9.52431e-05
1.47908e-05
9.48179e-05
1.47551e-05
9.42575e-05
1.47051e-05
9.3567e-05
1.46421e-05
9.27516e-05
1.45678e-05
9.18166e-05
1.44837e-05
9.07673e-05
1.43915e-05
8.96085e-05
1.42928e-05
8.83441e-05
1.4189e-05
8.69772e-05
1.40814e-05
8.55095e-05
1.39711e-05
8.39413e-05
1.38589e-05
8.22714e-05
1.37451e-05
8.04969e-05
1.36298e-05
7.86134e-05
1.35128e-05
7.66146e-05
1.33932e-05
7.44931e-05
1.327e-05
7.22398e-05
1.31417e-05
6.98447e-05
1.30064e-05
6.72966e-05
1.28621e-05
6.45839e-05
1.27063e-05
6.16943e-05
1.25364e-05
5.86152e-05
1.23496e-05
5.53343e-05
1.2143e-05
5.18389e-05
1.19136e-05
4.8117e-05
1.16582e-05
4.41568e-05
1.13738e-05
3.99469e-05
1.10574e-05
3.54765e-05
1.07059e-05
3.07352e-05
2.57131e-05
1.03162e-05
1.72187e-08
4.84092e-07
6.77247e-08
1.47081e-06
1.50795e-07
2.49215e-06
2.65576e-07
3.54857e-06
4.11073e-07
4.64036e-06
5.86147e-07
5.76761e-06
7.89509e-07
6.93027e-06
1.01972e-06
8.12804e-06
1.27519e-06
9.36048e-06
1.5542e-06
1.06269e-05
1.85485e-06
1.19265e-05
2.17516e-06
1.32581e-05
2.51301e-06
1.46205e-05
2.86617e-06
1.60124e-05
3.23235e-06
1.74322e-05
3.60919e-06
1.88782e-05
3.99432e-06
2.03487e-05
4.38536e-06
2.18418e-05
4.77994e-06
2.33557e-05
5.1758e-06
2.48886e-05
5.57073e-06
2.64387e-05
5.9627e-06
2.80044e-05
6.34982e-06
2.95842e-05
6.7304e-06
3.11766e-05
7.10297e-06
3.27805e-05
7.46635e-06
3.43951e-05
7.81957e-06
3.60196e-05
8.16199e-06
3.76537e-05
8.49323e-06
3.92973e-05
8.81323e-06
4.09506e-05
9.12217e-06
4.2614e-05
9.42051e-06
4.42881e-05
9.70898e-06
4.59737e-05
9.98846e-06
4.76716e-05
1.026e-05
4.93829e-05
1.0525e-05
5.11085e-05
1.07845e-05
5.2849e-05
1.104e-05
5.46052e-05
1.12928e-05
5.63772e-05
1.15442e-05
5.8165e-05
1.17954e-05
5.9968e-05
1.20474e-05
6.17849e-05
1.23011e-05
6.36141e-05
1.25572e-05
6.5453e-05
1.28162e-05
6.72984e-05
1.30782e-05
6.91463e-05
1.33433e-05
7.09921e-05
1.36113e-05
7.283e-05
1.38816e-05
7.4654e-05
1.41535e-05
7.64569e-05
1.44261e-05
7.82312e-05
1.46983e-05
7.99686e-05
1.49689e-05
8.16603e-05
1.52363e-05
8.32974e-05
1.54992e-05
8.48703e-05
1.57557e-05
8.63696e-05
1.60043e-05
8.77858e-05
1.62434e-05
8.91094e-05
1.64711e-05
9.03314e-05
1.66859e-05
9.14432e-05
1.68862e-05
9.24367e-05
1.70707e-05
9.33048e-05
1.72381e-05
9.4041e-05
1.73873e-05
9.46402e-05
1.75175e-05
9.50981e-05
1.76282e-05
9.54118e-05
1.77189e-05
9.55797e-05
1.77898e-05
9.56014e-05
1.78411e-05
9.54777e-05
1.78734e-05
9.52108e-05
1.78875e-05
9.48037e-05
1.78847e-05
9.42603e-05
1.78663e-05
9.35854e-05
1.78339e-05
9.2784e-05
1.77892e-05
9.18613e-05
1.7734e-05
9.08225e-05
1.76701e-05
8.96724e-05
1.75993e-05
8.84149e-05
1.75233e-05
8.70532e-05
1.74434e-05
8.55894e-05
1.73609e-05
8.40238e-05
1.72766e-05
8.23557e-05
1.71911e-05
8.05824e-05
1.71045e-05
7.87e-05
1.70164e-05
7.67027e-05
1.69262e-05
7.45833e-05
1.68328e-05
7.23333e-05
1.67344e-05
6.9943e-05
1.66293e-05
6.74017e-05
1.65151e-05
6.4698e-05
1.63894e-05
6.182e-05
1.62492e-05
5.87554e-05
1.60915e-05
5.54919e-05
1.59133e-05
5.20172e-05
1.57112e-05
4.83191e-05
1.5482e-05
4.43861e-05
1.52223e-05
4.02067e-05
1.49287e-05
3.57701e-05
1.4598e-05
3.10659e-05
2.60841e-05
1.4227e-05
1.74566e-08
4.66635e-07
6.87946e-08
1.41947e-06
1.53426e-07
2.40752e-06
2.70638e-07
3.43136e-06
4.19585e-07
4.49141e-06
5.99282e-07
5.58792e-06
8.08597e-07
6.72095e-06
1.04625e-06
7.89039e-06
1.31081e-06
9.09592e-06
1.6007e-06
1.0337e-05
1.91419e-06
1.1613e-05
2.24943e-06
1.29228e-05
2.60442e-06
1.42655e-05
2.97707e-06
1.56398e-05
3.36516e-06
1.70441e-05
3.76644e-06
1.84769e-05
4.17857e-06
1.99365e-05
4.59921e-06
2.14211e-05
5.02601e-06
2.29289e-05
5.45669e-06
2.44579e-05
5.889e-06
2.60064e-05
6.32082e-06
2.75726e-05
6.75018e-06
2.91548e-05
7.17526e-06
3.07515e-05
7.59446e-06
3.23613e-05
8.00642e-06
3.39831e-05
8.41e-06
3.5616e-05
8.80437e-06
3.72593e-05
9.18895e-06
3.89128e-05
9.56347e-06
4.05761e-05
9.92793e-06
4.22495e-05
1.02826e-05
4.39334e-05
1.0628e-05
4.56282e-05
1.09649e-05
4.73347e-05
1.12942e-05
4.90536e-05
1.1617e-05
5.07856e-05
1.19345e-05
5.25315e-05
1.22481e-05
5.42917e-05
1.25588e-05
5.60665e-05
1.28681e-05
5.78558e-05
1.3177e-05
5.9659e-05
1.34867e-05
6.14753e-05
1.3798e-05
6.33028e-05
1.41116e-05
6.51394e-05
1.4428e-05
6.6982e-05
1.47474e-05
6.88269e-05
1.50698e-05
7.06696e-05
1.5395e-05
7.25048e-05
1.57225e-05
7.43265e-05
1.60516e-05
7.61279e-05
1.63812e-05
7.79016e-05
1.67102e-05
7.96396e-05