/*--------------------------------*- C++ -*----------------------------------*\
| =========                 |                                                 |
| \\      /  F ield         | OpenFOAM: The Open Source CFD Toolbox           |
|  \\    /   O peration     | Version:  2406                                  |
|   \\  /    A nd           | Website:  www.openfoam.com                      |
|    \\/     M anipulation  |                                                 |
\*---------------------------------------------------------------------------*/
FoamFile
{
    version     2.0;
    format      ascii;
    arch        "LSB;label=32;scalar=64";
    class       volVectorField;
    location    "19.975";
    object      U;
}
// * * * * * * * * * * * * * * * * * * * * * * * * * * * * * * * * * * * * * //

dimensions      [0 1 -1 0 0 0 0];

internalField   nonuniform List<vector> 
40000
(
(3.8233e-06 0.00619807 0)
(2.15708e-05 0.0183135 0)
(5.76442e-05 0.0302381 0)
(0.000107066 0.0419615 0)
(0.000164942 0.0534723 0)
(0.000227075 0.0647591 0)
(0.00028921 0.0758102 0)
(0.000346873 0.0866142 0)
(0.000395466 0.0971598 0)
(0.000430346 0.107437 0)
(0.000446883 0.117435 0)
(0.000440508 0.127146 0)
(0.000406778 0.136563 0)
(0.00034143 0.145679 0)
(0.000240445 0.154493 0)
(0.000100099 0.163 0)
(-8.29702e-05 0.171203 0)
(-0.000311725 0.179104 0)
(-0.000588686 0.186708 0)
(-0.000915882 0.194023 0)
(-0.00129483 0.201057 0)
(-0.00172651 0.207824 0)
(-0.00221137 0.214337 0)
(-0.00274931 0.220612 0)
(-0.0033397 0.226667 0)
(-0.0039814 0.232518 0)
(-0.00467282 0.238186 0)
(-0.00541191 0.24369 0)
(-0.00619625 0.249049 0)
(-0.00702311 0.254281 0)
(-0.00788946 0.259404 0)
(-0.00879209 0.264433 0)
(-0.00972764 0.269382 0)
(-0.0106927 0.274263 0)
(-0.0116837 0.279084 0)
(-0.0126973 0.283851 0)
(-0.01373 0.288565 0)
(-0.0147786 0.293227 0)
(-0.0158398 0.297832 0)
(-0.0169107 0.302372 0)
(-0.0179882 0.306836 0)
(-0.0190698 0.311209 0)
(-0.0201526 0.315475 0)
(-0.0212342 0.319614 0)
(-0.0223121 0.323602 0)
(-0.0233841 0.327416 0)
(-0.0244479 0.331029 0)
(-0.0255013 0.334413 0)
(-0.0265421 0.33754 0)
(-0.0275684 0.340379 0)
(-0.0285781 0.342902 0)
(-0.0295693 0.345078 0)
(-0.0305402 0.346878 0)
(-0.031489 0.348276 0)
(-0.0324142 0.349244 0)
(-0.0333144 0.349759 0)
(-0.0341884 0.3498 0)
(-0.0350353 0.349348 0)
(-0.0358544 0.348389 0)
(-0.0366455 0.346912 0)
(-0.0374085 0.34491 0)
(-0.038144 0.342383 0)
(-0.0388528 0.339334 0)
(-0.039536 0.33577 0)
(-0.0401955 0.331706 0)
(-0.0408332 0.327159 0)
(-0.0414517 0.322153 0)
(-0.0420536 0.316716 0)
(-0.0426423 0.310877 0)
(-0.0432209 0.30467 0)
(-0.043793 0.298132 0)
(-0.0443623 0.291298 0)
(-0.0449323 0.284207 0)
(-0.0455067 0.276894 0)
(-0.0460888 0.269394 0)
(-0.0466819 0.261737 0)
(-0.0472889 0.253953 0)
(-0.0479123 0.246064 0)
(-0.0485543 0.238088 0)
(-0.0492166 0.23004 0)
(-0.0499006 0.221927 0)
(-0.0506071 0.213751 0)
(-0.0513366 0.205511 0)
(-0.0520892 0.1972 0)
(-0.0528648 0.188806 0)
(-0.0536629 0.180316 0)
(-0.0544829 0.171713 0)
(-0.0553241 0.16298 0)
(-0.0561857 0.154099 0)
(-0.0570671 0.14505 0)
(-0.0579674 0.135817 0)
(-0.0588863 0.126384 0)
(-0.0598233 0.116735 0)
(-0.0607783 0.106858 0)
(-0.0617513 0.0967446 0)
(-0.0627426 0.0863862 0)
(-0.0637527 0.0757778 0)
(-0.0647822 0.0649164 0)
(-0.0658319 0.0538012 0)
(-0.0669027 0.0424332 0)
(5.21402e-06 0.00613353 0)
(3.05827e-05 0.0181408 0)
(8.39293e-05 0.0299779 0)
(0.000159745 0.0416345 0)
(0.000252745 0.0530998 0)
(0.000358689 0.0643623 0)
(0.000473296 0.0754101 0)
(0.000592 0.0862314 0)
(0.000710065 0.0968145 0)
(0.000822669 0.107148 0)
(0.000924965 0.117221 0)
(0.00101213 0.127024 0)
(0.00107942 0.136548 0)
(0.00112223 0.145786 0)
(0.00113619 0.154733 0)
(0.00111716 0.163384 0)
(0.00106136 0.171739 0)
(0.000965379 0.179799 0)
(0.000826243 0.187565 0)
(0.000641463 0.195043 0)
(0.000409066 0.202242 0)
(0.000127622 0.209171 0)
(-0.000203734 0.215841 0)
(-0.000585299 0.222268 0)
(-0.00101681 0.228466 0)
(-0.00149745 0.234452 0)
(-0.0020259 0.240244 0)
(-0.00260033 0.245861 0)
(-0.00321852 0.25132 0)
(-0.00387783 0.256641 0)
(-0.00457534 0.261839 0)
(-0.00530787 0.26693 0)
(-0.00607206 0.271929 0)
(-0.00686442 0.276847 0)
(-0.00768143 0.281694 0)
(-0.00851957 0.286475 0)
(-0.00937539 0.291193 0)
(-0.0102455 0.295849 0)
(-0.0111268 0.300439 0)
(-0.0120161 0.304956 0)
(-0.0129105 0.30939 0)
(-0.0138075 0.313727 0)
(-0.0147044 0.31795 0)
(-0.0155989 0.322042 0)
(-0.0164889 0.325978 0)
(-0.0173724 0.329736 0)
(-0.0182475 0.33329 0)
(-0.0191123 0.336612 0)
(-0.0199654 0.339673 0)
(-0.0208052 0.342445 0)
(-0.0216302 0.344898 0)
(-0.0224392 0.347002 0)
(-0.023231 0.34873 0)
(-0.0240046 0.350055 0)
(-0.0247589 0.350949 0)
(-0.0254935 0.351391 0)
(-0.0262076 0.351358 0)
(-0.0269011 0.350834 0)
(-0.027574 0.349804 0)
(-0.0282263 0.348259 0)
(-0.0288587 0.346192 0)
(-0.0294721 0.343602 0)
(-0.0300674 0.340494 0)
(-0.0306461 0.336876 0)
(-0.0312101 0.332762 0)
(-0.0317611 0.328171 0)
(-0.0323016 0.323126 0)
(-0.032834 0.317655 0)
(-0.0333609 0.311788 0)
(-0.033885 0.305559 0)
(-0.0344091 0.299004 0)
(-0.0349361 0.292159 0)
(-0.0354686 0.285062 0)
(-0.0360093 0.277747 0)
(-0.0365606 0.270248 0)
(-0.0371246 0.262598 0)
(-0.0377034 0.254821 0)
(-0.0382986 0.246943 0)
(-0.0389115 0.23898 0)
(-0.039543 0.230944 0)
(-0.040194 0.222845 0)
(-0.0408649 0.214683 0)
(-0.0415559 0.206456 0)
(-0.042267 0.198157 0)
(-0.042998 0.189774 0)
(-0.0437487 0.181295 0)
(-0.0445189 0.172701 0)
(-0.0453084 0.163977 0)
(-0.0461169 0.155102 0)
(-0.0469445 0.14606 0)
(-0.0477912 0.136832 0)
(-0.0486573 0.127403 0)
(-0.0495433 0.117759 0)
(-0.0504499 0.107888 0)
(-0.0513779 0.0977792 0)
(-0.0523284 0.0874261 0)
(-0.0533027 0.0768236 0)
(-0.054302 0.0659688 0)
(-0.055328 0.0548608 0)
(-0.056382 0.0435009 0)
(6.5036e-06 0.00604921 0)
(3.89832e-05 0.0179098 0)
(0.000108499 0.0296214 0)
(0.000209099 0.0411744 0)
(0.000335185 0.052558 0)
(0.000482528 0.0637609 0)
(0.000646878 0.0747714 0)
(0.000823639 0.0855771 0)
(0.00100799 0.0961659 0)
(0.00119501 0.106526 0)
(0.00137967 0.116645 0)
(0.00155697 0.126513 0)
(0.00172192 0.13612 0)
(0.00186963 0.145456 0)
(0.0019954 0.154515 0)
(0.00209475 0.163292 0)
(0.00216348 0.171782 0)
(0.00219779 0.179985 0)
(0.00219424 0.1879 0)
(0.0021499 0.195533 0)
(0.00206235 0.202887 0)
(0.00192968 0.20997 0)
(0.00175061 0.216793 0)
(0.00152439 0.223368 0)
(0.0012509 0.229708 0)
(0.000930595 0.235828 0)
(0.000564478 0.241745 0)
(0.000154083 0.247476 0)
(-0.000298574 0.253039 0)
(-0.000791052 0.258451 0)
(-0.00132055 0.263727 0)
(-0.00188397 0.268885 0)
(-0.00247799 0.273938 0)
(-0.00309915 0.278897 0)
(-0.00374388 0.283773 0)
(-0.00440865 0.288572 0)
(-0.00508993 0.293299 0)
(-0.00578433 0.297953 0)
(-0.0064886 0.302532 0)
(-0.00719967 0.307031 0)
(-0.0079147 0.311439 0)
(-0.00863105 0.315745 0)
(-0.00934632 0.319932 0)
(-0.0100584 0.323981 0)
(-0.0107652 0.327873 0)
(-0.0114652 0.331582 0)
(-0.0121567 0.335085 0)
(-0.0128384 0.338353 0)
(-0.0135091 0.34136 0)
(-0.0141679 0.344075 0)
(-0.0148138 0.346471 0)
(-0.0154462 0.348518 0)
(-0.0160644 0.350188 0)
(-0.0166681 0.351454 0)
(-0.017257 0.352291 0)
(-0.0178311 0.352677 0)
(-0.0183904 0.352589 0)
(-0.0189353 0.352012 0)
(-0.0194662 0.350931 0)
(-0.019984 0.349336 0)
(-0.0204895 0.347223 0)
(-0.0209839 0.344591 0)
(-0.0214686 0.341444 0)
(-0.0219451 0.33779 0)
(-0.0224152 0.333645 0)
(-0.0228807 0.329028 0)
(-0.0233438 0.32396 0)
(-0.0238064 0.318471 0)
(-0.0242708 0.31259 0)
(-0.024739 0.306351 0)
(-0.0252132 0.29979 0)
(-0.0256953 0.292943 0)
(-0.0261873 0.285846 0)
(-0.0266907 0.278535 0)
(-0.0272072 0.271042 0)
(-0.0277379 0.263399 0)
(-0.0282838 0.255632 0)
(-0.0288458 0.247764 0)
(-0.0294245 0.239812 0)
(-0.0300202 0.231787 0)
(-0.030633 0.223699 0)
(-0.0312632 0.215547 0)
(-0.0319105 0.20733 0)
(-0.0325751 0.19904 0)
(-0.0332567 0.190667 0)
(-0.0339556 0.182195 0)
(-0.0346716 0.173609 0)
(-0.0354052 0.164892 0)
(-0.0361568 0.156024 0)
(-0.036927 0.146989 0)
(-0.0377167 0.137769 0)
(-0.0385268 0.128347 0)
(-0.0393589 0.118711 0)
(-0.0402142 0.108849 0)
(-0.0410946 0.0987501 0)
(-0.0420018 0.088408 0)
(-0.0429378 0.0778174 0)
(-0.0439047 0.0669758 0)
(-0.0449048 0.0558822 0)
(-0.0459401 0.0445377 0)
(7.68655e-06 0.00594726 0)
(4.6736e-05 0.0176266 0)
(0.000131248 0.0291786 0)
(0.000254907 0.0405941 0)
(0.00041188 0.0518628 0)
(0.000598004 0.0629737 0)
(0.000809112 0.0739149 0)
(0.00104063 0.0846741 0)
(0.00128773 0.0952388 0)
(0.00154542 0.105596 0)
(0.00180859 0.115734 0)
(0.0020721 0.125641 0)
(0.00233076 0.135306 0)
(0.00257948 0.144717 0)
(0.00281327 0.153868 0)
(0.00302734 0.16275 0)
(0.00321714 0.171358 0)
(0.00337847 0.179689 0)
(0.0035075 0.187741 0)
(0.00360086 0.195515 0)
(0.00365564 0.203015 0)
(0.00366952 0.210246 0)
(0.00364073 0.217216 0)
(0.0035681 0.223935 0)
(0.00345107 0.230414 0)
(0.0032897 0.236668 0)
(0.00308462 0.24271 0)
(0.00283706 0.248557 0)
(0.00254875 0.254226 0)
(0.0022219 0.259731 0)
(0.00185913 0.26509 0)
(0.00146341 0.270318 0)
(0.00103798 0.275429 0)
(0.000586249 0.280434 0)
(0.000111764 0.285344 0)
(-0.000381906 0.290167 0)
(-0.000891225 0.294906 0)
(-0.00141276 0.299563 0)
(-0.00194323 0.304136 0)
(-0.00247956 0.308621 0)
(-0.0030189 0.313009 0)
(-0.00355868 0.317289 0)
(-0.00409658 0.321444 0)
(-0.00463059 0.325459 0)
(-0.00515896 0.329312 0)
(-0.0056802 0.332981 0)
(-0.0061931 0.33644 0)
(-0.00669666 0.339664 0)
(-0.00719013 0.342625 0)
(-0.00767296 0.345295 0)
(-0.0081448 0.347645 0)
(-0.00860548 0.349647 0)
(-0.00905501 0.351273 0)
(-0.00949357 0.352496 0)
(-0.00992152 0.353291 0)
(-0.0103394 0.353637 0)
(-0.0107479 0.353511 0)
(-0.0111478 0.352898 0)
(-0.0115402 0.351784 0)
(-0.0119263 0.350159 0)
(-0.0123074 0.348018 0)
(-0.0126849 0.345362 0)
(-0.0130605 0.342193 0)
(-0.0134357 0.338523 0)
(-0.0138125 0.334363 0)
(-0.0141925 0.329735 0)
(-0.0145775 0.32466 0)
(-0.0149693 0.319166 0)
(-0.0153695 0.313284 0)
(-0.0157797 0.307046 0)
(-0.0162014 0.300489 0)
(-0.0166357 0.293647 0)
(-0.0170836 0.286557 0)
(-0.0175461 0.279254 0)
(-0.0180236 0.271771 0)
(-0.0185167 0.264138 0)
(-0.0190254 0.256381 0)
(-0.0195498 0.248523 0)
(-0.0200897 0.24058 0)
(-0.0206449 0.232564 0)
(-0.0212152 0.224484 0)
(-0.0218003 0.21634 0)
(-0.0223998 0.208131 0)
(-0.0230139 0.199847 0)
(-0.0236424 0.19148 0)
(-0.0242857 0.183015 0)
(-0.0249442 0.174435 0)
(-0.0256188 0.165724 0)
(-0.0263104 0.156864 0)
(-0.0270203 0.147837 0)
(-0.0277503 0.138625 0)
(-0.028502 0.129214 0)
(-0.0292776 0.11959 0)
(-0.0300794 0.109741 0)
(-0.0309098 0.0996567 0)
(-0.0317715 0.089331 0)
(-0.0326672 0.0787585 0)
(-0.0335997 0.0679365 0)
(-0.0345719 0.0568642 0)
(-0.0355865 0.0455426 0)
(8.76015e-06 0.00582983 0)
(5.38192e-05 0.0172972 0)
(0.000152105 0.0286591 0)
(0.000297019 0.0399067 0)
(0.000482564 0.0510304 0)
(0.000704695 0.0620193 0)
(0.000959377 0.0728618 0)
(0.00124212 0.0835456 0)
(0.00154812 0.0940579 0)
(0.00187241 0.104386 0)
(0.00220983 0.114516 0)
(0.00255517 0.124436 0)
(0.00290312 0.134134 0)
(0.00324841 0.143599 0)
(0.00358584 0.152819 0)
(0.00391036 0.161788 0)
(0.00421711 0.170496 0)
(0.00450153 0.178939 0)
(0.00475942 0.187113 0)
(0.00498699 0.195018 0)
(0.0051809 0.202653 0)
(0.00533837 0.210024 0)
(0.00545717 0.217134 0)
(0.00553567 0.223992 0)
(0.00557287 0.230608 0)
(0.0055684 0.236994 0)
(0.0055225 0.243161 0)
(0.00543601 0.249125 0)
(0.00531035 0.254901 0)
(0.00514746 0.260504 0)
(0.00494973 0.265949 0)
(0.00471994 0.271251 0)
(0.0044612 0.276424 0)
(0.00417684 0.28148 0)
(0.00387036 0.286429 0)
(0.00354531 0.29128 0)
(0.00320523 0.296037 0)
(0.00285358 0.300702 0)
(0.00249366 0.305275 0)
(0.00212857 0.309752 0)
(0.00176115 0.314125 0)
(0.00139395 0.318384 0)
(0.00102921 0.322514 0)
(0.000668851 0.3265 0)
(0.000314452 0.330321 0)
(-3.27168e-05 0.333955 0)
(-0.0003717 0.33738 0)
(-0.000701838 0.340568 0)
(-0.00102275 0.343493 0)
(-0.00133431 0.346128 0)
(-0.00163663 0.348444 0)
(-0.00193005 0.350412 0)
(-0.00221513 0.352006 0)
(-0.00249258 0.3532 0)
(-0.00276334 0.353968 0)
(-0.00302848 0.354288 0)
(-0.00328923 0.35414 0)
(-0.00354698 0.353507 0)
(-0.00380321 0.352376 0)
(-0.00405955 0.350738 0)
(-0.00431767 0.348587 0)
(-0.00457933 0.345923 0)
(-0.00484631 0.34275 0)
(-0.00512039 0.339078 0)
(-0.00540332 0.33492 0)
(-0.00569676 0.330295 0)
(-0.00600228 0.325227 0)
(-0.00632129 0.319741 0)
(-0.006655 0.313869 0)
(-0.00700444 0.307643 0)
(-0.00737039 0.301097 0)
(-0.00775335 0.294269 0)
(-0.00815361 0.287192 0)
(-0.00857116 0.279902 0)
(-0.00900579 0.272431 0)
(-0.00945708 0.26481 0)
(-0.0099244 0.257063 0)
(-0.010407 0.249214 0)
(-0.0109042 0.24128 0)
(-0.0114151 0.233272 0)
(-0.011939 0.225198 0)
(-0.0124754 0.217059 0)
(-0.0130238 0.208854 0)
(-0.0135841 0.200576 0)
(-0.0141565 0.192213 0)
(-0.0147414 0.183752 0)
(-0.0153398 0.175178 0)
(-0.0159529 0.166474 0)
(-0.0165823 0.157621 0)
(-0.0172299 0.148603 0)
(-0.017898 0.139403 0)
(-0.0185893 0.130005 0)
(-0.0193065 0.120395 0)
(-0.0200529 0.110563 0)
(-0.0208315 0.100499 0)
(-0.0216458 0.0901948 0)
(-0.0224993 0.0796463 0)
(-0.0233954 0.0688504 0)
(-0.0243378 0.0578062 0)
(-0.0253299 0.0465145 0)
(9.72335e-06 0.00569897 0)
(6.02216e-05 0.0169277 0)
(0.000171031 0.0280724 0)
(0.000335343 0.0391251 0)
(0.000547071 0.0500766 0)
(0.00080233 0.0609165 0)
(0.00109726 0.0716333 0)
(0.0014275 0.082215 0)
(0.00178835 0.0926485 0)
(0.00217489 0.102921 0)
(0.002582 0.113018 0)
(0.00300443 0.122928 0)
(0.00343682 0.132636 0)
(0.0038738 0.142131 0)
(0.00430999 0.1514 0)
(0.00474014 0.160435 0)
(0.00515913 0.169225 0)
(0.00556211 0.177764 0)
(0.00594451 0.186046 0)
(0.00630216 0.194068 0)
(0.00663133 0.201829 0)
(0.00692877 0.209329 0)
(0.0071918 0.216573 0)
(0.00741835 0.223565 0)
(0.00760693 0.230314 0)
(0.00775673 0.236828 0)
(0.00786756 0.24312 0)
(0.00793987 0.249201 0)
(0.0079747 0.255086 0)
(0.00797368 0.260789 0)
(0.00793891 0.266324 0)
(0.00787295 0.271705 0)
(0.00777874 0.276945 0)
(0.00765947 0.282057 0)
(0.00751856 0.28705 0)
(0.00735951 0.291934 0)
(0.00718585 0.296714 0)
(0.00700103 0.301393 0)
(0.00680839 0.305971 0)
(0.00661103 0.310446 0)
(0.0064118 0.314809 0)
(0.00621325 0.319053 0)
(0.00601757 0.323164 0)
(0.0058266 0.327127 0)
(0.0056418 0.330923 0)
(0.00546427 0.334531 0)
(0.00529472 0.337927 0)
(0.00513356 0.341088 0)
(0.00498082 0.343986 0)
(0.00483624 0.346595 0)
(0.00469929 0.348886 0)
(0.00456917 0.350833 0)
(0.00444484 0.352407 0)
(0.00432505 0.353583 0)
(0.00420836 0.354337 0)
(0.00409317 0.354646 0)
(0.00397773 0.35449 0)
(0.00386019 0.353853 0)
(0.00373858 0.352721 0)
(0.0036109 0.351084 0)
(0.00347511 0.348938 0)
(0.00332919 0.346282 0)
(0.00317115 0.34312 0)
(0.00299911 0.339461 0)
(0.00281133 0.335319 0)
(0.00260621 0.330711 0)
(0.0023824 0.325662 0)
(0.00213879 0.320196 0)
(0.00187456 0.314344 0)
(0.00158919 0.308139 0)
(0.00128248 0.301614 0)
(0.000954573 0.294805 0)
(0.000605926 0.287747 0)
(0.000237322 0.280474 0)
(-0.000150367 0.273019 0)
(-0.000555946 0.265411 0)
(-0.000977951 0.257676 0)
(-0.00141502 0.249836 0)
(-0.00186578 0.241909 0)
(-0.0023289 0.233907 0)
(-0.00280327 0.225838 0)
(-0.00328798 0.217703 0)
(-0.00378248 0.209501 0)
(-0.0042866 0.201225 0)
(-0.00480059 0.192864 0)
(-0.00532516 0.184407 0)
(-0.00586153 0.175838 0)
(-0.00641137 0.16714 0)
(-0.00697683 0.158295 0)
(-0.00756049 0.149288 0)
(-0.00816532 0.1401 0)
(-0.00879462 0.130718 0)
(-0.00945198 0.121127 0)
(-0.0101413 0.111317 0)
(-0.0108666 0.101276 0)
(-0.0116319 0.0909993 0)
(-0.0124414 0.0804805 0)
(-0.0132995 0.0697168 0)
(-0.0142103 0.0587073 0)
(-0.015178 0.0474524 0)
(1.05766e-05 0.00555669 0)
(6.59417e-05 0.0165236 0)
(0.000188013 0.0274278 0)
(0.000369847 0.0382618 0)
(0.000605327 0.0490171 0)
(0.000890769 0.0596836 0)
(0.00122253 0.0702503 0)
(0.00159643 0.0807052 0)
(0.0020079 0.0910355 0)
(0.00245214 0.101228 0)
(0.00292413 0.111269 0)
(0.00341863 0.121144 0)
(0.0039303 0.13084 0)
(0.0044537 0.140343 0)
(0.00498335 0.149642 0)
(0.00551385 0.158723 0)
(0.00603988 0.167577 0)
(0.00655633 0.176195 0)
(0.00705833 0.18457 0)
(0.00754135 0.192696 0)
(0.00800129 0.20057 0)
(0.00843447 0.20819 0)
(0.00883778 0.215559 0)
(0.00920867 0.222679 0)
(0.0095452 0.229555 0)
(0.00984608 0.236196 0)
(0.0101107 0.242611 0)
(0.010339 0.24881 0)
(0.0105317 0.254805 0)
(0.0106901 0.26061 0)
(0.0108159 0.266237 0)
(0.0109113 0.2717 0)
(0.0109792 0.277012 0)
(0.0110226 0.282185 0)
(0.0110446 0.287228 0)
(0.0110488 0.292152 0)
(0.0110387 0.29696 0)
(0.0110176 0.301659 0)
(0.010989 0.306248 0)
(0.0109559 0.310725 0)
(0.0109212 0.315085 0)
(0.0108874 0.31932 0)
(0.0108568 0.323418 0)
(0.0108311 0.327364 0)
(0.0108117 0.331141 0)
(0.0107996 0.334728 0)
(0.0107952 0.338104 0)
(0.0107988 0.341245 0)
(0.0108102 0.344124 0)
(0.0108286 0.346716 0)
(0.0108533 0.348992 0)
(0.0108829 0.350927 0)
(0.010916 0.352492 0)
(0.010951 0.353663 0)
(0.0109858 0.354414 0)
(0.0110183 0.354725 0)
(0.0110464 0.354574 0)
(0.0110677 0.353946 0)
(0.0110799 0.352826 0)
(0.0110804 0.351205 0)
(0.0110671 0.349078 0)
(0.0110375 0.346444 0)
(0.0109895 0.343307 0)
(0.010921 0.339675 0)
(0.0108304 0.335561 0)
(0.010716 0.330984 0)
(0.0105767 0.325965 0)
(0.0104117 0.32053 0)
(0.0102204 0.314709 0)
(0.0100028 0.308533 0)
(0.00975927 0.302036 0)
(0.00949046 0.295253 0)
(0.0091975 0.288219 0)
(0.00888184 0.280967 0)
(0.00854513 0.27353 0)
(0.00818925 0.265938 0)
(0.0078163 0.258215 0)
(0.0074283 0.250386 0)
(0.00702722 0.242466 0)
(0.00661488 0.234469 0)
(0.00619281 0.226403 0)
(0.00576219 0.21827 0)
(0.00532377 0.210069 0)
(0.00487777 0.201794 0)
(0.00442388 0.193435 0)
(0.00396118 0.184981 0)
(0.00348816 0.176415 0)
(0.00300275 0.167724 0)
(0.0025023 0.158888 0)
(0.00198364 0.149892 0)
(0.00144318 0.14072 0)
(0.000876907 0.131356 0)
(0.000280623 0.121787 0)
(-0.00035047 0.112001 0)
(-0.00102113 0.10199 0)
(-0.001736 0.0917447 0)
(-0.00250014 0.081261 0)
(-0.0033185 0.0705355 0)
(-0.00419602 0.0595669 0)
(-0.00513754 0.0483556 0)
(1.13217e-05 0.0054049 0)
(7.09863e-05 0.0160906 0)
(0.000203065 0.0267342 0)
(0.000400543 0.0373289 0)
(0.000657335 0.0478668 0)
(0.000969993 0.0583383 0)
(0.00133512 0.0687329 0)
(0.00174876 0.0790388 0)
(0.00220654 0.0892435 0)
(0.00270381 0.0993336 0)
(0.00323568 0.109295 0)
(0.00379702 0.119114 0)
(0.00438253 0.128776 0)
(0.00498677 0.138267 0)
(0.00560424 0.147574 0)
(0.00622943 0.156683 0)
(0.00685686 0.165583 0)
(0.00748123 0.174263 0)
(0.00809741 0.182715 0)
(0.00870058 0.190931 0)
(0.00928625 0.198905 0)
(0.00985039 0.206635 0)
(0.0103894 0.21412 0)
(0.0109004 0.22136 0)
(0.0113809 0.228359 0)
(0.0118292 0.235123 0)
(0.0122441 0.241658 0)
(0.0126252 0.247973 0)
(0.0129728 0.254079 0)
(0.0132876 0.259988 0)
(0.0135711 0.265711 0)
(0.0138253 0.27126 0)
(0.0140527 0.276648 0)
(0.0142559 0.281886 0)
(0.0144382 0.286985 0)
(0.0146029 0.291953 0)
(0.0147533 0.296796 0)
(0.0148929 0.30152 0)
(0.015025 0.306126 0)
(0.0151527 0.310612 0)
(0.0152789 0.314975 0)
(0.0154063 0.319206 0)
(0.0155368 0.323296 0)
(0.0156725 0.327232 0)
(0.0158144 0.330996 0)
(0.0159636 0.33457 0)
(0.0161204 0.337932 0)
(0.0162848 0.341059 0)
(0.0164564 0.343927 0)
(0.0166342 0.346509 0)
(0.0168169 0.348779 0)
(0.0170031 0.350711 0)
(0.0171909 0.352277 0)
(0.017378 0.353452 0)
(0.0175621 0.354212 0)
(0.0177407 0.354535 0)
(0.017911 0.354402 0)
(0.0180704 0.353794 0)
(0.0182159 0.3527 0)
(0.018345 0.351108 0)
(0.0184547 0.349013 0)
(0.0185426 0.346414 0)
(0.0186062 0.343314 0)
(0.0186435 0.339721 0)
(0.0186526 0.335648 0)
(0.018632 0.331112 0)
(0.0185805 0.326135 0)
(0.0184977 0.320741 0)
(0.0183833 0.314959 0)
(0.0182375 0.308821 0)
(0.0180613 0.30236 0)
(0.0178559 0.29561 0)
(0.0176229 0.288604 0)
(0.0173644 0.281378 0)
(0.0170827 0.273963 0)
(0.0167804 0.266388 0)
(0.0164601 0.25868 0)
(0.0161245 0.25086 0)
(0.0157762 0.242948 0)
(0.0154173 0.234956 0)
(0.0150499 0.226892 0)
(0.0146755 0.21876 0)
(0.0142949 0.210559 0)
(0.0139084 0.202284 0)
(0.0135158 0.193926 0)
(0.013116 0.185473 0)
(0.0127072 0.176912 0)
(0.0122869 0.168227 0)
(0.0118521 0.159401 0)
(0.0113991 0.150418 0)
(0.0109237 0.141263 0)
(0.0104212 0.13192 0)
(0.00988662 0.122375 0)
(0.00931464 0.112619 0)
(0.00869976 0.10264 0)
(0.00803647 0.0924314 0)
(0.00731905 0.0819881 0)
(0.00654181 0.0713064 0)
(0.00569915 0.0603847 0)
(0.00478551 0.0492233 0)
(1.19614e-05 0.0052454 0)
(7.53692e-05 0.0156339 0)
(0.000216219 0.026 0)
(0.000427486 0.0363379 0)
(0.000703168 0.0466401 0)
(0.00104008 0.0568978 0)
(0.00143512 0.0671007 0)
(0.00188456 0.0772377 0)
(0.00238426 0.0872963 0)
(0.0029298 0.0972634 0)
(0.00351646 0.107125 0)
(0.00413925 0.116867 0)
(0.00479297 0.126474 0)
(0.00547227 0.135933 0)
(0.00617163 0.145228 0)
(0.00688552 0.154346 0)
(0.00760836 0.163273 0)
(0.0083347 0.171999 0)
(0.00905922 0.180512 0)
(0.00977681 0.188803 0)
(0.0104827 0.196866 0)
(0.0111725 0.204694 0)
(0.0118423 0.212285 0)
(0.0124886 0.219637 0)
(0.0131085 0.226753 0)
(0.0136999 0.233634 0)
(0.0142612 0.240286 0)
(0.0147914 0.246716 0)
(0.0152903 0.252933 0)
(0.0157584 0.258946 0)
(0.0161966 0.264767 0)
(0.0166065 0.270405 0)
(0.0169904 0.275873 0)
(0.0173507 0.281182 0)
(0.0176904 0.286341 0)
(0.0180125 0.291359 0)
(0.0183205 0.296243 0)
(0.0186176 0.300998 0)
(0.0189072 0.305626 0)
(0.0191924 0.310127 0)
(0.0194761 0.314498 0)
(0.0197608 0.318732 0)
(0.0200489 0.322821 0)
(0.020342 0.326751 0)
(0.0206414 0.330508 0)
(0.0209481 0.334074 0)
(0.0212622 0.337429 0)
(0.0215837 0.340549 0)
(0.0219118 0.343412 0)
(0.0222455 0.345993 0)
(0.0225832 0.348264 0)
(0.022923 0.3502 0)
(0.0232628 0.351776 0)
(0.0235998 0.352965 0)
(0.0239315 0.353743 0)
(0.0242547 0.35409 0)
(0.0245664 0.353984 0)
(0.0248634 0.353408 0)
(0.0251425 0.35235 0)
(0.0254006 0.350798 0)
(0.0256346 0.348747 0)
(0.0258416 0.346194 0)
(0.0260191 0.343144 0)
(0.0261647 0.339602 0)
(0.0262765 0.335581 0)
(0.026353 0.331097 0)
(0.0263932 0.326171 0)
(0.0263966 0.320827 0)
(0.0263632 0.315094 0)
(0.0262938 0.309002 0)
(0.0261894 0.302583 0)
(0.0260518 0.295871 0)
(0.0258832 0.2889 0)
(0.0256862 0.281704 0)
(0.0254636 0.274314 0)
(0.0252187 0.266759 0)
(0.0249547 0.259067 0)
(0.0246748 0.251259 0)
(0.0243821 0.243355 0)
(0.0240792 0.235367 0)
(0.0237687 0.227305 0)
(0.0234521 0.219173 0)
(0.0231308 0.210972 0)
(0.0228051 0.202696 0)
(0.0224746 0.194338 0)
(0.0221383 0.185887 0)
(0.0217941 0.17733 0)
(0.0214394 0.168651 0)
(0.0210705 0.159836 0)
(0.0206834 0.150868 0)
(0.0202732 0.141731 0)
(0.0198348 0.13241 0)
(0.0193625 0.122894 0)
(0.0188502 0.113169 0)
(0.0182919 0.103227 0)
(0.0176811 0.0930601 0)
(0.0170115 0.0826619 0)
(0.0162767 0.0720293 0)
(0.0154703 0.0611604 0)
(0.0145862 0.050055 0)
(1.24996e-05 0.00507987 0)
(7.911e-05 0.0151582 0)
(0.000227526 0.0252333 0)
(0.000450766 0.0352998 0)
(0.000742957 0.0453508 0)
(0.00110121 0.0553782 0)
(0.00152271 0.0653725 0)
(0.00200403 0.0753227 0)
(0.00254129 0.0852169 0)
(0.00313031 0.0950422 0)
(0.0037666 0.104785 0)
(0.00444536 0.11443 0)
(0.00516156 0.123964 0)
(0.00590994 0.13337 0)
(0.00668507 0.142635 0)
(0.00748141 0.151743 0)
(0.00829338 0.16068 0)
(0.00911541 0.169434 0)
(0.00994204 0.177992 0)
(0.010768 0.186344 0)
(0.0115881 0.194481 0)
(0.0123978 0.202395 0)
(0.0131928 0.210082 0)
(0.0139691 0.217538 0)
(0.0147235 0.224762 0)
(0.0154534 0.231755 0)
(0.0161566 0.23852 0)
(0.0168317 0.245063 0)
(0.0174782 0.251389 0)
(0.0180958 0.257508 0)
(0.0186852 0.263427 0)
(0.0192476 0.269157 0)
(0.0197849 0.274709 0)
(0.0202992 0.280092 0)
(0.0207932 0.285316 0)
(0.0212698 0.29039 0)
(0.0217323 0.29532 0)
(0.0221839 0.300111 0)
(0.0226277 0.304768 0)
(0.0230671 0.30929 0)
(0.0235048 0.313675 0)
(0.0239434 0.317918 0)
(0.0243853 0.32201 0)
(0.0248322 0.325941 0)
(0.0252855 0.329697 0)
(0.0257459 0.333261 0)
(0.0262137 0.336613 0)
(0.0266886 0.339733 0)
(0.0271698 0.342598 0)
(0.0276562 0.345182 0)
(0.0281458 0.347462 0)
(0.0286366 0.34941 0)
(0.029126 0.351003 0)
(0.0296111 0.352213 0)
(0.0300887 0.353019 0)
(0.0305555 0.353397 0)
(0.031008 0.353328 0)
(0.0314426 0.352794 0)
(0.0318557 0.351782 0)
(0.0322438 0.350281 0)
(0.0326035 0.348284 0)
(0.0329317 0.345789 0)
(0.0332255 0.342797 0)
(0.0334823 0.339317 0)
(0.0337003 0.335357 0)
(0.0338777 0.330935 0)
(0.0340136 0.32607 0)
(0.0341076 0.320786 0)
(0.0341599 0.31511 0)
(0.0341714 0.309071 0)
(0.0341436 0.302701 0)
(0.0340787 0.296034 0)
(0.0339791 0.289103 0)
(0.033848 0.281941 0)
(0.0336888 0.27458 0)
(0.0335053 0.267049 0)
(0.0333011 0.259375 0)
(0.0330801 0.25158 0)
(0.0328458 0.243685 0)
(0.0326014 0.235702 0)
(0.0323497 0.227642 0)
(0.0320927 0.219511 0)
(0.0318318 0.211308 0)
(0.0315677 0.203032 0)
(0.0313 0.194673 0)
(0.0310275 0.186224 0)
(0.0307482 0.177671 0)
(0.0304589 0.169 0)
(0.0301559 0.160195 0)
(0.0298346 0.151242 0)
(0.0294897 0.142126 0)
(0.0291155 0.132831 0)
(0.0287056 0.123344 0)
(0.0282534 0.113655 0)
(0.0277521 0.103754 0)
(0.0271945 0.0936315 0)
(0.0265737 0.0832831 0)
(0.0258824 0.0727046 0)
(0.0251136 0.0618937 0)
(0.0242605 0.05085 0)
(1.29407e-05 0.00490987 0)
(8.22333e-05 0.0146683 0)
(0.00023705 0.0244414 0)
(0.0004705 0.0342246 0)
(0.000776883 0.0440117 0)
(0.00115361 0.0537951 0)
(0.00159821 0.0635659 0)
(0.00210753 0.0733138 0)
(0.00267802 0.0830273 0)
(0.00330576 0.0926937 0)
(0.00398652 0.1023 0)
(0.00471574 0.111831 0)
(0.0054886 0.121272 0)
(0.00629999 0.130608 0)
(0.0071446 0.139824 0)
(0.00801698 0.148904 0)
(0.00891156 0.157834 0)
(0.00982273 0.1666 0)
(0.0107449 0.175187 0)
(0.0116727 0.183585 0)
(0.0126008 0.191782 0)
(0.0135243 0.19977 0)
(0.0144384 0.207541 0)
(0.0153391 0.21509 0)
(0.0162225 0.222415 0)
(0.0170857 0.229513 0)
(0.0179259 0.236387 0)
(0.0187415 0.243038 0)
(0.0195311 0.249472 0)
(0.0202942 0.255695 0)
(0.0210311 0.261714 0)
(0.0217424 0.267538 0)
(0.0224297 0.273176 0)
(0.0230947 0.278638 0)
(0.0237398 0.283931 0)
(0.0243678 0.289065 0)
(0.0249817 0.294046 0)
(0.0255845 0.298881 0)
(0.0261795 0.303572 0)
(0.0267697 0.30812 0)
(0.0273581 0.312525 0)
(0.0279473 0.316782 0)
(0.0285396 0.320884 0)
(0.0291367 0.324821 0)
(0.0297402 0.328581 0)
(0.0303508 0.332147 0)
(0.0309687 0.335503 0)
(0.0315936 0.338628 0)
(0.0322248 0.341499 0)
(0.0328607 0.344094 0)
(0.0334995 0.346387 0)
(0.0341387 0.348354 0)
(0.0347755 0.34997 0)
(0.0354068 0.351209 0)
(0.0360291 0.352049 0)
(0.0366386 0.352467 0)
(0.0372315 0.352443 0)
(0.0378038 0.35196 0)
(0.0383516 0.351003 0)
(0.0388709 0.349561 0)
(0.0393582 0.347627 0)
(0.0398098 0.345199 0)
(0.0402226 0.342276 0)
(0.0405941 0.338866 0)
(0.0409218 0.334978 0)
(0.0412042 0.330627 0)
(0.0414402 0.325832 0)
(0.0416294 0.320616 0)
(0.0417723 0.315004 0)
(0.0418697 0.309026 0)
(0.0419235 0.302712 0)
(0.0419361 0.296096 0)
(0.0419103 0.28921 0)
(0.0418498 0.282088 0)
(0.0417585 0.274759 0)
(0.0416404 0.267255 0)
(0.0414998 0.259602 0)
(0.041341 0.251823 0)
(0.041168 0.243937 0)
(0.0409845 0.235961 0)
(0.0407936 0.227904 0)
(0.0405977 0.219773 0)
(0.0403985 0.21157 0)
(0.0401967 0.203292 0)
(0.0399922 0.194934 0)
(0.0397837 0.186486 0)
(0.0395691 0.177937 0)
(0.0393451 0.169274 0)
(0.0391077 0.160481 0)
(0.0388519 0.151545 0)
(0.038572 0.14245 0)
(0.0382617 0.133182 0)
(0.0379142 0.123729 0)
(0.0375222 0.114078 0)
(0.0370781 0.10422 0)
(0.0365743 0.0941467 0)
(0.0360029 0.0838523 0)
(0.0353561 0.0733325 0)
(0.0346261 0.0625847 0)
(0.0338053 0.0516081 0)
(1.32896e-05 0.00473684 0)
(8.47672e-05 0.0141683 0)
(0.000244867 0.0236313 0)
(0.000486831 0.0331219 0)
(0.000805166 0.0426347 0)
(0.00119761 0.0521628 0)
(0.001662 0.0616977 0)
(0.00219555 0.0712299 0)
(0.00279501 0.0807483 0)
(0.00345676 0.0902408 0)
(0.00417687 0.0996942 0)
(0.00495106 0.109094 0)
(0.00577474 0.118427 0)
(0.00664302 0.127676 0)
(0.00755077 0.136825 0)
(0.00849264 0.145861 0)
(0.00946315 0.154766 0)
(0.0104567 0.163526 0)
(0.0114677 0.172127 0)
(0.0124906 0.180555 0)
(0.01352 0.188799 0)
(0.0145506 0.196847 0)
(0.0155776 0.204691 0)
(0.0165965 0.212323 0)
(0.0176031 0.219739 0)
(0.0185939 0.226936 0)
(0.019566 0.233911 0)
(0.0205169 0.240667 0)
(0.021445 0.247206 0)
(0.0223493 0.253531 0)
(0.0232294 0.25965 0)
(0.0240858 0.265569 0)
(0.0249193 0.271296 0)
(0.0257315 0.276838 0)
(0.0265245 0.282205 0)
(0.0273006 0.287404 0)
(0.0280626 0.292442 0)
(0.0288136 0.297325 0)
(0.0295565 0.302055 0)
(0.0302944 0.306636 0)
(0.0310302 0.311066 0)
(0.0317666 0.315342 0)
(0.0325058 0.319459 0)
(0.0332498 0.323408 0)
(0.0340001 0.327176 0)
(0.0347574 0.330751 0)
(0.0355221 0.334115 0)
(0.0362938 0.337249 0)
(0.0370717 0.340132 0)
(0.0378542 0.342742 0)
(0.0386394 0.345054 0)
(0.0394246 0.347045 0)
(0.0402069 0.34869 0)
(0.0409828 0.349964 0)
(0.0417484 0.350844 0)
(0.0424999 0.351308 0)
(0.043233 0.351337 0)
(0.0439433 0.350911 0)
(0.0446266 0.350017 0)
(0.0452786 0.348643 0)
(0.0458953 0.34678 0)
(0.0464728 0.344427 0)
(0.0470078 0.341582 0)
(0.0474972 0.33825 0)
(0.0479386 0.334442 0)
(0.0483303 0.33017 0)
(0.048671 0.325453 0)
(0.0489603 0.320312 0)
(0.0491987 0.314773 0)
(0.0493873 0.308863 0)
(0.0495279 0.302612 0)
(0.0496232 0.296053 0)
(0.0496764 0.289218 0)
(0.0496914 0.282139 0)
(0.0496724 0.274848 0)
(0.049624 0.267375 0)
(0.0495509 0.259746 0)
(0.0494578 0.251984 0)
(0.0493492 0.244112 0)
(0.0492291 0.236143 0)
(0.049101 0.228091 0)
(0.0489677 0.219961 0)
(0.0488313 0.211758 0)
(0.0486926 0.20348 0)
(0.0485516 0.195122 0)
(0.0484073 0.186676 0)
(0.0482572 0.178132 0)
(0.0480982 0.169476 0)
(0.0479259 0.160697 0)
(0.0477351 0.151778 0)
(0.0475198 0.142706 0)
(0.047273 0.133468 0)
(0.0469875 0.124049 0)
(0.0466555 0.114439 0)
(0.0462688 0.104628 0)
(0.0458189 0.0946069 0)
(0.0452975 0.0843704 0)
(0.0446959 0.0739135 0)
(0.0440056 0.0632335 0)
(0.0432184 0.052329 0)
(1.35518e-05 0.00456209 0)
(8.6743e-05 0.013662 0)
(0.000251061 0.0228093 0)
(0.000499918 0.0320006 0)
(0.000828057 0.0412311 0)
(0.00123354 0.0504946 0)
(0.00171456 0.0597834 0)
(0.00226866 0.0690885 0)
(0.00289293 0.0783995 0)
(0.00358408 0.0877048 0)
(0.00433851 0.0969915 0)
(0.00515224 0.106246 0)
(0.00602095 0.115454 0)
(0.00694001 0.124599 0)
(0.0079045 0.133667 0)
(0.00890925 0.142641 0)
(0.00994889 0.151505 0)
(0.0110179 0.160244 0)
(0.0121107 0.168842 0)
(0.0132218 0.177286 0)
(0.0143455 0.185561 0)
(0.0154765 0.193656 0)
(0.0166097 0.201561 0)
(0.0177403 0.209265 0)