/*--------------------------------*- C++ -*----------------------------------*\
| =========                 |                                                 |
| \\      /  F ield         | OpenFOAM: The Open Source CFD Toolbox           |
|  \\    /   O peration     | Version:  2406                                  |
|   \\  /    A nd           | Website:  www.openfoam.com                      |
|    \\/     M anipulation  |                                                 |
\*---------------------------------------------------------------------------*/
FoamFile
{
    version     2.0;
    format      ascii;
    arch        "LSB;label=32;scalar=64";
    class       volScalarField;
    location    "6";
    object      p;
}
// * * * * * * * * * * * * * * * * * * * * * * * * * * * * * * * * * * * * * //

dimensions      [0 2 -2 0 0 0 0];

internalField   nonuniform List<scalar> 
40000
(
1.18549e-08
-0.000123539
-0.000245021
-0.00035754
-0.000468675
-0.000580429
-0.000692334
-0.000804056
-0.000915545
-0.00102679
-0.00113774
-0.00124837
-0.00135864
-0.0014685
-0.00157794
-0.00168691
-0.00179539
-0.00190337
-0.00201081
-0.00211772
-0.00222407
-0.00232987
-0.00243512
-0.00253982
-0.002644
-0.00274767
-0.00285085
-0.00295359
-0.00305594
-0.00315793
-0.00325965
-0.00336114
-0.00346251
-0.00356383
-0.00366522
-0.00376677
-0.00386862
-0.0039709
-0.00407376
-0.00417735
-0.00428186
-0.00438746
-0.00449435
-0.00460274
-0.00471285
-0.00482493
-0.00493922
-0.00505599
-0.00517551
-0.00529808
-0.00542399
-0.00555357
-0.00568714
-0.00582504
-0.00596763
-0.00611527
-0.00626833
-0.00642719
-0.00659226
-0.00676392
-0.00694258
-0.00712865
-0.00732254
-0.00752467
-0.00773545
-0.00795529
-0.00818458
-0.00842372
-0.0086731
-0.00893307
-0.00920398
-0.00948613
-0.00977982
-0.0100853
-0.0104027
-0.0107323
-0.011074
-0.011428
-0.0117941
-0.0121721
-0.0125618
-0.0129628
-0.0133744
-0.013796
-0.0142267
-0.0146653
-0.0151106
-0.0155608
-0.0160142
-0.0164684
-0.0169211
-0.0173691
-0.0178093
-0.0182377
-0.01865
-0.0190415
-0.0194067
-0.0197397
-0.0200339
-0.020282
-0.0011826
-0.00130536
-0.00142607
-0.0015379
-0.00164838
-0.00175952
-0.00187082
-0.00198198
-0.00209294
-0.00220368
-0.00231417
-0.00242437
-0.00253423
-0.00264374
-0.00275285
-0.00286154
-0.00296978
-0.00307755
-0.00318483
-0.00329162
-0.0033979
-0.00350368
-0.00360895
-0.00371372
-0.00381802
-0.00392187
-0.00402529
-0.00412833
-0.00423103
-0.00433346
-0.00443566
-0.00453773
-0.00463974
-0.00474179
-0.00484399
-0.00494645
-0.00504931
-0.0051527
-0.00525679
-0.00536173
-0.00546771
-0.00557492
-0.00568356
-0.00579387
-0.00590607
-0.00602042
-0.00613717
-0.00625661
-0.00637902
-0.00650472
-0.00663403
-0.00676728
-0.00690481
-0.007047
-0.00719421
-0.00734683
-0.00750526
-0.00766991
-0.00784121
-0.00801957
-0.00820543
-0.00839924
-0.00860144
-0.00881249
-0.00903282
-0.0092629
-0.00950316
-0.00975404
-0.010016
-0.0102893
-0.0105746
-0.010872
-0.011182
-0.0115048
-0.0118407
-0.0121899
-0.0125525
-0.0129286
-0.0133181
-0.013721
-0.014137
-0.0145657
-0.0150067
-0.0154593
-0.0159225
-0.0163954
-0.0168766
-0.0173645
-0.0178572
-0.0183526
-0.018848
-0.0193405
-0.0198266
-0.0203025
-0.0207637
-0.0212053
-0.0216216
-0.0220065
-0.0223531
-0.0226537
-0.0023859
-0.0025078
-0.00262767
-0.00273876
-0.00284855
-0.00295901
-0.00306967
-0.00318022
-0.0032906
-0.00340079
-0.00351076
-0.00362048
-0.00372991
-0.00383901
-0.00394775
-0.0040561
-0.00416405
-0.00427157
-0.00437864
-0.00448525
-0.0045914
-0.00469709
-0.00480232
-0.0049071
-0.00501145
-0.0051154
-0.00521897
-0.00532222
-0.00542518
-0.00552792
-0.00563051
-0.00573302
-0.00583555
-0.00593819
-0.00604105
-0.00614426
-0.00624795
-0.00635227
-0.00645738
-0.00656345
-0.00667068
-0.00677926
-0.00688941
-0.00700136
-0.00711536
-0.00723167
-0.00735057
-0.00747234
-0.0075973
-0.00772577
-0.00785809
-0.0079946
-0.00813569
-0.00828172
-0.0084331
-0.00859024
-0.00875357
-0.00892352
-0.00910053
-0.00928507
-0.00947761
-0.00967862
-0.00988858
-0.010108
-0.0103373
-0.0105771
-0.0108277
-0.0110897
-0.0113636
-0.0116499
-0.0119488
-0.012261
-0.0125867
-0.0129263
-0.0132801
-0.0136484
-0.0140313
-0.0144291
-0.0148417
-0.015269
-0.0157109
-0.0161672
-0.0166372
-0.0171204
-0.0176161
-0.0181231
-0.0186401
-0.0191657
-0.0196979
-0.0202345
-0.020773
-0.0213103
-0.021843
-0.0223671
-0.022878
-0.0233706
-0.0238392
-0.0242774
-0.0246778
-0.0250327
-0.00360733
-0.00372834
-0.00384734
-0.00395766
-0.00406672
-0.00417649
-0.00428648
-0.00439639
-0.00450616
-0.00461578
-0.00472522
-0.00483444
-0.0049434
-0.00505207
-0.00516041
-0.0052684
-0.00537602
-0.00548325
-0.00559007
-0.00569646
-0.00580244
-0.00590799
-0.00601312
-0.00611785
-0.00622218
-0.00632616
-0.0064298
-0.00653317
-0.0066363
-0.00673925
-0.00684211
-0.00694494
-0.00704784
-0.00715092
-0.00725428
-0.00735806
-0.00746239
-0.00756744
-0.00767335
-0.00778032
-0.00788854
-0.00799822
-0.00810958
-0.00822288
-0.00833835
-0.00845628
-0.00857696
-0.00870069
-0.00882779
-0.00895861
-0.00909349
-0.00923281
-0.00937696
-0.00952635
-0.00968138
-0.00984251
-0.0100102
-0.0101848
-0.010367
-0.0105571
-0.0107557
-0.0109633
-0.0111803
-0.0114074
-0.0116451
-0.0118938
-0.0121542
-0.0124267
-0.0127119
-0.0130102
-0.0133223
-0.0136484
-0.0139891
-0.0143449
-0.014716
-0.0151027
-0.0155054
-0.0159242
-0.0163592
-0.0168104
-0.0172777
-0.0177609
-0.0182595
-0.0187731
-0.0193007
-0.0198415
-0.0203942
-0.0209572
-0.0215288
-0.0221066
-0.0226883
-0.0232706
-0.0238501
-0.0244227
-0.0249838
-0.0255282
-0.0260499
-0.0265422
-0.0269978
-0.0274084
-0.00484446
-0.00496457
-0.0050827
-0.00519224
-0.00530058
-0.00540964
-0.00551896
-0.00562823
-0.0057374
-0.00584645
-0.00595535
-0.00606406
-0.00617255
-0.00628077
-0.00638871
-0.00649633
-0.00660361
-0.00671053
-0.00681708
-0.00692324
-0.00702901
-0.00713438
-0.00723937
-0.00734399
-0.00744826
-0.00755219
-0.00765583
-0.00775923
-0.00786243
-0.00796549
-0.00806849
-0.00817151
-0.00827464
-0.008378
-0.00848168
-0.00858584
-0.00869061
-0.00879614
-0.00890262
-0.00901022
-0.00911915
-0.00922963
-0.00934188
-0.00945617
-0.00957275
-0.00969192
-0.00981397
-0.00993922
-0.010068
-0.0102007
-0.0103376
-0.0104792
-0.0106259
-0.0107781
-0.0109362
-0.0111007
-0.0112721
-0.0114508
-0.0116374
-0.0118324
-0.0120363
-0.0122497
-0.0124732
-0.0127072
-0.0129525
-0.0132094
-0.0134787
-0.0137609
-0.0140565
-0.0143662
-0.0146905
-0.0150299
-0.0153848
-0.0157559
-0.0161434
-0.0165479
-0.0169695
-0.0174086
-0.0178653
-0.0183396
-0.0188316
-0.0193411
-0.0198677
-0.0204109
-0.02097
-0.0215441
-0.0221319
-0.022732
-0.0233426
-0.0239614
-0.024586
-0.0252132
-0.0258395
-0.0264607
-0.0270723
-0.0276687
-0.028244
-0.0287913
-0.0293029
-0.0297702
-0.00609493
-0.00621417
-0.00633145
-0.00644024
-0.00654788
-0.00665626
-0.00676494
-0.0068736
-0.00698219
-0.00709069
-0.00719907
-0.0073073
-0.00741533
-0.00752313
-0.00763067
-0.00773793
-0.00784487
-0.00795149
-0.00805776
-0.00816367
-0.00826921
-0.00837439
-0.00847921
-0.00858368
-0.00868782
-0.00879166
-0.00889523
-0.00899857
-0.00910174
-0.0092048
-0.00930782
-0.00941089
-0.0095141
-0.00961756
-0.00972138
-0.0098257
-0.00993068
-0.0100365
-0.0101432
-0.0102512
-0.0103605
-0.0104714
-0.0105842
-0.0106991
-0.0108164
-0.0109364
-0.0110593
-0.0111856
-0.0113156
-0.0114496
-0.0115881
-0.0117314
-0.0118799
-0.0120343
-0.0121948
-0.0123619
-0.0125363
-0.0127184
-0.0129087
-0.0131078
-0.0133163
-0.0135348
-0.0137637
-0.0140039
-0.0142558
-0.0145201
-0.0147974
-0.0150884
-0.0153936
-0.0157137
-0.0160493
-0.016401
-0.0167693
-0.0171547
-0.0175578
-0.017979
-0.0184187
-0.0188771
-0.0193546
-0.0198513
-0.0203672
-0.0209021
-0.0214558
-0.0220279
-0.0226178
-0.0232244
-0.0238467
-0.0244833
-0.0251324
-0.0257917
-0.0264588
-0.0271305
-0.0278033
-0.0284731
-0.029135
-0.0297836
-0.0304127
-0.0310152
-0.0315833
-0.032108
-0.00735653
-0.00747497
-0.00759146
-0.00769955
-0.00780654
-0.0079143
-0.00802239
-0.00813048
-0.00823854
-0.00834654
-0.00845445
-0.00856224
-0.00866986
-0.00877727
-0.00888446
-0.00899138
-0.00909802
-0.00920434
-0.00931035
-0.00941601
-0.00952133
-0.0096263
-0.00973092
-0.00983521
-0.00993919
-0.0100429
-0.0101463
-0.0102495
-0.0103526
-0.0104555
-0.0105584
-0.0106614
-0.0107645
-0.0108679
-0.0109716
-0.0110759
-0.0111808
-0.0112866
-0.0113933
-0.0115013
-0.0116107
-0.0117217
-0.0118346
-0.0119497
-0.0120673
-0.0121875
-0.0123109
-0.0124377
-0.0125683
-0.012703
-0.0128424
-0.0129867
-0.0131366
-0.0132923
-0.0134545
-0.0136236
-0.0138002
-0.0139848
-0.014178
-0.0143804
-0.0145925
-0.0148151
-0.0150487
-0.015294
-0.0155517
-0.0158223
-0.0161067
-0.0164055
-0.0167192
-0.0170488
-0.0173947
-0.0177576
-0.0181381
-0.0185369
-0.0189546
-0.0193915
-0.0198482
-0.020325
-0.0208223
-0.0213403
-0.021879
-0.0224385
-0.0230184
-0.0236185
-0.0242381
-0.0248765
-0.0255325
-0.0262048
-0.0268915
-0.0275906
-0.0282996
-0.0290153
-0.0297341
-0.0304519
-0.0311639
-0.0318645
-0.0325472
-0.033205
-0.0338298
-0.0344124
-0.0086272
-0.00874491
-0.00886071
-0.00896819
-0.00907461
-0.00918183
-0.00928941
-0.00939702
-0.00950462
-0.0096122
-0.00971971
-0.00982712
-0.00993439
-0.0100415
-0.0101484
-0.010255
-0.0103614
-0.0104675
-0.0105732
-0.0106787
-0.0107838
-0.0108885
-0.0109929
-0.011097
-0.0112008
-0.0113043
-0.0114075
-0.0115105
-0.0116133
-0.011716
-0.0118187
-0.0119214
-0.0120243
-0.0121274
-0.0122308
-0.0123348
-0.0124394
-0.0125449
-0.0126513
-0.0127589
-0.012868
-0.0129787
-0.0130913
-0.0132061
-0.0133234
-0.0134435
-0.0135667
-0.0136934
-0.013824
-0.0139588
-0.0140984
-0.0142431
-0.0143934
-0.0145498
-0.0147129
-0.0148831
-0.015061
-0.0152473
-0.0154424
-0.0156471
-0.015862
-0.0160877
-0.0163249
-0.0165744
-0.0168367
-0.0171127
-0.0174031
-0.0177085
-0.0180298
-0.0183676
-0.0187226
-0.0190957
-0.0194874
-0.0198984
-0.0203294
-0.020781
-0.0212535
-0.0217476
-0.0222636
-0.0228018
-0.0233622
-0.0239451
-0.0245502
-0.0251772
-0.0258256
-0.0264947
-0.0271834
-0.0278903
-0.0286139
-0.0293519
-0.0301019
-0.0308607
-0.0316249
-0.0323901
-0.0331515
-0.0339035
-0.0346396
-0.0353524
-0.0360337
-0.0366741
-0.00990497
-0.0100221
-0.0101373
-0.0102443
-0.0103503
-0.0104571
-0.0105642
-0.0106715
-0.0107787
-0.010886
-0.0109932
-0.0111003
-0.0112074
-0.0113142
-0.0114209
-0.0115273
-0.0116335
-0.0117393
-0.0118449
-0.0119502
-0.0120551
-0.0121596
-0.0122639
-0.0123677
-0.0124713
-0.0125745
-0.0126775
-0.0127802
-0.0128827
-0.012985
-0.0130873
-0.0131896
-0.013292
-0.0133946
-0.0134976
-0.013601
-0.013705
-0.0138098
-0.0139155
-0.0140225
-0.0141308
-0.0142407
-0.0143526
-0.0144666
-0.0145831
-0.0147024
-0.0148249
-0.0149508
-0.0150807
-0.015215
-0.015354
-0.0154982
-0.0156482
-0.0158045
-0.0159675
-0.0161379
-0.0163163
-0.0165032
-0.0166993
-0.0169053
-0.0171219
-0.0173497
-0.0175894
-0.0178419
-0.0181078
-0.018388
-0.0186832
-0.0189941
-0.0193216
-0.0196665
-0.0200296
-0.0204116
-0.0208132
-0.0212353
-0.0216784
-0.0221433
-0.0226305
-0.0231406
-0.023674
-0.0242311
-0.0248122
-0.0254172
-0.0260463
-0.026699
-0.027375
-0.0280737
-0.0287939
-0.0295345
-0.0302937
-0.0310696
-0.0318595
-0.0326605
-0.0334691
-0.0342808
-0.0350909
-0.0358935
-0.0366822
-0.0374495
-0.0381869
-0.0388848
-0.0111881
-0.0113048
-0.0114196
-0.0115262
-0.0116319
-0.0117384
-0.0118453
-0.0119523
-0.0120594
-0.0121664
-0.0122735
-0.0123804
-0.0124873
-0.012594
-0.0127006
-0.0128069
-0.0129129
-0.0130187
-0.0131241
-0.0132292
-0.013334
-0.0134384
-0.0135424
-0.0136461
-0.0137494
-0.0138523
-0.0139549
-0.0140573
-0.0141594
-0.0142612
-0.014363
-0.0144647
-0.0145665
-0.0146684
-0.0147705
-0.0148731
-0.0149761
-0.01508
-0.0151847
-0.0152905
-0.0153976
-0.0155063
-0.0156169
-0.0157296
-0.0158447
-0.0159626
-0.0160836
-0.0162082
-0.0163366
-0.0164695
-0.0166072
-0.0167501
-0.0168989
-0.0170541
-0.0172162
-0.0173858
-0.0175636
-0.0177502
-0.0179462
-0.0181524
-0.0183695
-0.0185983
-0.0188394
-0.0190937
-0.019362
-0.0196451
-0.0199439
-0.0202591
-0.0205916
-0.0209423
-0.0213121
-0.0217017
-0.0221119
-0.0225437
-0.0229976
-0.0234746
-0.0239751
-0.0244999
-0.0250495
-0.0256242
-0.0262245
-0.0268504
-0.0275021
-0.0281793
-0.0288816
-0.0296085
-0.0303591
-0.031132
-0.0319257
-0.0327382
-0.0335669
-0.034409
-0.0352608
-0.036118
-0.0369756
-0.037828
-0.0386684
-0.0394893
-0.040282
-0.0410367
-0.0124749
-0.0125914
-0.012706
-0.0128124
-0.0129179
-0.0130243
-0.0131312
-0.0132381
-0.0133451
-0.0134521
-0.0135592
-0.0136661
-0.013773
-0.0138797
-0.0139862
-0.0140925
-0.0141986
-0.0143043
-0.0144097
-0.0145148
-0.0146194
-0.0147237
-0.0148276
-0.014931
-0.015034
-0.0151366
-0.0152389
-0.0153408
-0.0154423
-0.0155436
-0.0156447
-0.0157456
-0.0158465
-0.0159474
-0.0160485
-0.0161499
-0.0162517
-0.0163542
-0.0164574
-0.0165617
-0.0166671
-0.0167741
-0.0168828
-0.0169935
-0.0171067
-0.0172225
-0.0173414
-0.0174638
-0.01759
-0.0177207
-0.0178561
-0.0179969
-0.0181436
-0.0182967
-0.0184568
-0.0186247
-0.0188008
-0.0189859
-0.0191807
-0.019386
-0.0196025
-0.0198309
-0.0200722
-0.0203271
-0.0205965
-0.0208812
-0.0211822
-0.0215004
-0.0218366
-0.0221918
-0.0225668
-0.0229627
-0.0233802
-0.0238202
-0.0242836
-0.0247712
-0.0252837
-0.0258218
-0.0263861
-0.0269771
-0.0275952
-0.0282407
-0.0289136
-0.0296138
-0.0303411
-0.0310949
-0.0318744
-0.0326783
-0.0335051
-0.0343529
-0.0352191
-0.0361009
-0.0369946
-0.037896
-0.0388
-0.0397009
-0.0405919
-0.0414653
-0.0423124
-0.0431231
-0.013764
-0.0138805
-0.0139951
-0.0141016
-0.0142072
-0.0143136
-0.0144206
-0.0145276
-0.0146348
-0.014742
-0.0148492
-0.0149563
-0.0150633
-0.0151702
-0.0152769
-0.0153833
-0.0154895
-0.0155953
-0.0157007
-0.0158058
-0.0159104
-0.0160146
-0.0161183
-0.0162216
-0.0163243
-0.0164266
-0.0165284
-0.0166297
-0.0167306
-0.0168312
-0.0169314
-0.0170314
-0.0171311
-0.0172309
-0.0173306
-0.0174305
-0.0175307
-0.0176314
-0.0177327
-0.0178349
-0.0179382
-0.0180428
-0.0181491
-0.0182572
-0.0183677
-0.0184807
-0.0185967
-0.0187161
-0.0188393
-0.0189668
-0.0190992
-0.0192368
-0.0193803
-0.0195304
-0.0196875
-0.0198524
-0.0200257
-0.0202082
-0.0204006
-0.0206037
-0.0208183
-0.0210452
-0.0212853
-0.0215394
-0.0218086
-0.0220936
-0.0223955
-0.0227152
-0.0230537
-0.0234119
-0.0237909
-0.0241915
-0.0246148
-0.0250617
-0.0255332
-0.0260299
-0.0265529
-0.0271029
-0.0276805
-0.0282863
-0.0289207
-0.0295842
-0.0302769
-0.0309988
-0.0317496
-0.0325288
-0.0333357
-0.0341692
-0.0350276
-0.0359093
-0.0368116
-0.0377316
-0.0386659
-0.03961
-0.040559
-0.0415071
-0.0424473
-0.043372
-0.0442722
-0.0451377
-0.015054
-0.0151708
-0.0152857
-0.0153924
-0.0154983
-0.0156052
-0.0157124
-0.0158199
-0.0159274
-0.0160349
-0.0161425
-0.01625
-0.0163574
-0.0164646
-0.0165716
-0.0166783
-0.0167847
-0.0168908
-0.0169964
-0.0171016
-0.0172062
-0.0173104
-0.017414
-0.0175171
-0.0176195
-0.0177214
-0.0178227
-0.0179234
-0.0180236
-0.0181232
-0.0182224
-0.0183212
-0.0184196
-0.0185178
-0.0186159
-0.018714
-0.0188121
-0.0189106
-0.0190095
-0.0191092
-0.0192097
-0.0193114
-0.0194146
-0.0195195
-0.0196265
-0.0197359
-0.0198482
-0.0199638
-0.020083
-0.0202065
-0.0203347
-0.0204682
-0.0206075
-0.0207534
-0.0209063
-0.0210671
-0.0212364
-0.0214151
-0.0216038
-0.0218034
-0.0220148
-0.0222388
-0.0224763
-0.0227284
-0.0229959
-0.0232798
-0.0235811
-0.0239009
-0.0242402
-0.0246
-0.0249814
-0.0253854
-0.0258131
-0.0262654
-0.0267433
-0.0272478
-0.0277798
-0.02834
-0.0289294
-0.0295485
-0.0301978
-0.0308779
-0.0315889
-0.0323308
-0.0331036
-0.0339067
-0.0347396
-0.035601
-0.0364896
-0.0374035
-0.0383404
-0.0392972
-0.0402704
-0.0412558
-0.0422482
-0.0432419
-0.0442299
-0.0452043
-0.0461562
-0.0470752
-0.0163439
-0.0164612
-0.0165767
-0.016684
-0.0167905
-0.0168979
-0.0170058
-0.0171139
-0.017222
-0.0173302
-0.0174383
-0.0175464
-0.0176544
-0.0177621
-0.0178697
-0.0179769
-0.0180837
-0.0181901
-0.018296
-0.0184014
-0.0185062
-0.0186104
-0.018714
-0.0188169
-0.0189191
-0.0190205
-0.0191212
-0.0192212
-0.0193205
-0.0194192
-0.0195171
-0.0196145
-0.0197113
-0.0198077
-0.0199038
-0.0199996
-0.0200953
-0.0201911
-0.0202872
-0.0203837
-0.0204808
-0.020579
-0.0206783
-0.0207792
-0.020882
-0.0209871
-0.0210947
-0.0212055
-0.0213199
-0.0214383
-0.0215613
-0.0216896
-0.0218236
-0.0219641
-0.0221117
-0.0222671
-0.0224312
-0.0226047
-0.0227884
-0.0229831
-0.0231899
-0.0234097
-0.0236433
-0.0238917
-0.0241561
-0.0244374
-0.0247368
-0.0250552
-0.0253938
-0.0257537
-0.026136
-0.0265418
-0.0269723
-0.0274284
-0.0279113
-0.028422
-0.0289614
-0.0295305
-0.0301301
-0.030761
-0.0314237
-0.0321187
-0.0328464
-0.0336069
-0.0344001
-0.0352256
-0.0360828
-0.0369707
-0.0378878
-0.0388324
-0.0398022
-0.0407941
-0.0418047
-0.0428296
-0.0438639
-0.0449015
-0.0459356
-0.0469582
-0.0479602
-0.048931
-0.0176326
-0.017751
-0.0178673
-0.0179755
-0.0180829
-0.0181912
-0.0183
-0.018409
-0.018518
-0.018627
-0.0187361
-0.018845
-0.0189538
-0.0190623
-0.0191706
-0.0192784
-0.0193859
-0.0194928
-0.0195992
-0.0197049
-0.01981
-0.0199143
-0.0200179
-0.0201206
-0.0202225
-0.0203235
-0.0204236
-0.0205228
-0.0206211
-0.0207185
-0.0208151
-0.0209108
-0.0210057
-0.0211
-0.0211936
-0.0212868
-0.0213796
-0.0214722
-0.0215648
-0.0216576
-0.0217508
-0.0218447
-0.0219395
-0.0220356
-0.0221333
-0.0222331
-0.0223352
-0.0224403
-0.0225487
-0.022661
-0.0227778
-0.0228996
-0.0230271
-0.023161
-0.023302
-0.0234508
-0.0236083
-0.0237752
-0.0239525
-0.0241411
-0.0243419
-0.0245559
-0.024784
-0.0250275
-0.0252873
-0.0255645
-0.0258603
-0.0261758
-0.0265122
-0.0268706
-0.0272523
-0.0276584
-0.0280901
-0.0285485
-0.0290349
-0.0295502
-0.0300955
-0.0306719
-0.0312802
-0.0319212
-0.0325957
-0.0333042
-0.0340471
-0.0348245
-0.0356365
-0.0364828
-0.0373628
-0.0382754
-0.0392195
-0.0401932
-0.0411941
-0.0422195
-0.0432657
-0.0443285
-0.0454029
-0.0464828
-0.0475612
-0.0486302
-0.0496805
-0.0507013
-0.0189195
-0.0190391
-0.0191568
-0.0192662
-0.0193748
-0.0194844
-0.0195944
-0.0197046
-0.0198148
-0.0199251
-0.0200353
-0.0201453
-0.0202552
-0.0203648
-0.020474
-0.0205827
-0.020691
-0.0207987
-0.0209056
-0.0210119
-0.0211173
-0.0212219
-0.0213255
-0.0214281
-0.0215297
-0.0216302
-0.0217296
-0.0218279
-0.0219251
-0.0220211
-0.022116
-0.0222097
-0.0223025
-0.0223943
-0.0224851
-0.0225752
-0.0226646
-0.0227535
-0.022842
-0.0229304
-0.0230189
-0.0231078
-0.0231973
-0.0232878
-0.0233795
-0.0234731
-0.0235687
-0.023667
-0.0237684
-0.0238734
-0.0239828
-0.024097
-0.0242167
-0.0243428
-0.0244758
-0.0246167
-0.0247662
-0.0249252
-0.0250947
-0.0252756
-0.0254689
-0.0256756
-0.0258969
-0.0261338
-0.0263874
-0.026659
-0.0269497
-0.0272607
-0.0275933
-0.0279487
-0.0283282
-0.028733
-0.0291644
-0.0296236
-0.0301118
-0.0306302
-0.0311799
-0.031762
-0.0323775
-0.0330272
-0.0337119
-0.0344322
-0.0351887
-0.0359815
-0.0368108
-0.0376762
-0.0385773
-0.0395132
-0.0404825
-0.0414836
-0.0425141
-0.0435711
-0.0446513
-0.0457502
-0.0468628
-0.0479831
-0.0491041
-0.0502176
-0.0513142
-0.0523833
-0.0202038
-0.0203252
-0.0204446
-0.0205557
-0.0206658
-0.020777
-0.0208886
-0.0210004
-0.0211122
-0.0212239
-0.0213356
-0.0214471
-0.0215584
-0.0216693
-0.0217797
-0.0218896
-0.0219989
-0.0221075
-0.0222152
-0.0223221
-0.0224281
-0.0225329
-0.0226367
-0.0227392
-0.0228405
-0.0229405
-0.0230392
-0.0231364
-0.0232323
-0.0233267
-0.0234197
-0.0235112
-0.0236014
-0.0236903
-0.023778
-0.0238645
-0.0239499
-0.0240345
-0.0241184
-0.0242017
-0.0242848
-0.0243678
-0.0244512
-0.0245351
-0.02462
-0.0247063
-0.0247944
-0.0248848
-0.024978
-0.0250746
-0.0251753
-0.0252806
-0.0253913
-0.0255082
-0.0256319
-0.0257634
-0.0259035
-0.0260531
-0.0262133
-0.026385
-0.0265693
-0.0267673
-0.0269801
-0.0272089
-0.0274548
-0.0277192
-0.0280032
-0.0283082
-0.0286355
-0.0289863
-0.029362
-0.029764
-0.0301935
-0.0306519
-0.0311404
-0.0316604
-0.0322129
-0.0327991
-0.0334202
-0.034077
-0.0347703
-0.035501
-0.0362695
-0.0370762
-0.0379211
-0.0388041
-0.0397248
-0.0406822
-0.0416751
-0.0427019
-0.0437602
-0.0448472
-0.0459595
-0.0470927
-0.0482417
-0.0494006
-0.0505621
-0.0517182
-0.0528593
-0.0539746
-0.0214851
-0.0216088
-0.0217304
-0.0218434
-0.0219556
-0.0220688
-0.0221824
-0.0222961
-0.0224099
-0.0225235
-0.0226371
-0.0227504
-0.0228633
-0.0229758
-0.0230878
-0.0231991
-0.0233097
-0.0234194
-0.0235281
-0.0236358
-0.0237424
-0.0238476
-0.0239516
-0.0240541
-0.0241551
-0.0242545
-0.0243523
-0.0244484
-0.0245428
-0.0246354
-0.0247262
-0.0248152
-0.0249025
-0.0249881
-0.0250721
-0.0251545
-0.0252354
-0.0253151
-0.0253936
-0.0254711
-0.0255479
-0.0256243
-0.0257006
-0.025777
-0.025854
-0.025932
-0.0260114
-0.0260928
-0.0261767
-0.0262637
-0.0263544
-0.0264495
-0.0265498
-0.0266561
-0.0267691
-0.0268897
-0.0270189
-0.0271577
-0.0273071
-0.0274681
-0.0276418
-0.0278295
-0.0280322
-0.0282513
-0.028488
-0.0287435
-0.0290193
-0.0293167
-0.029637
-0.0299817
-0.0303521
-0.0307497
-0.0311758
-0.0316318
-0.0321191
-0.032639
-0.0331928
-0.0337817
-0.0344068
-0.0350692
-0.0357697
-0.0365092
-0.0372882
-0.0381072
-0.0389662
-0.0398652
-0.0408038
-0.0417811
-0.042796
-0.0438468
-0.0449313
-0.0460465
-0.0471891
-0.0483548
-0.0495384
-0.0507339
-0.0519341
-0.0531307
-0.0543142
-0.0554736
-0.0227632
-0.0228896
-0.0230139
-0.0231294
-0.0232441
-0.0233597
-0.0234758
-0.0235919
-0.023708
-0.0238239
-0.0239397
-0.0240551
-0.0241701
-0.0242846
-0.0243984
-0.0245114
-0.0246235
-0.0247346
-0.0248445
-0.0249532
-0.0250605
-0.0251663
-0.0252705
-0.025373
-0.0254737
-0.0255725
-0.0256693
-0.0257641
-0.0258568
-0.0259473
-0.0260357
-0.0261219
-0.0262059
-0.0262877
-0.0263675
-0.0264452
-0.026521
-0.026595
-0.0266674
-0.0267384
-0.0268081
-0.026877
-0.0269452
-0.0270131
-0.0270811
-0.0271497
-0.0272193
-0.0272905
-0.0273638
-0.0274398
-0.0275192
-0.0276028
-0.0276912
-0.0277854
-0.0278862
-0.0279945
-0.0281114
-0.0282377
-0.0283747
-0.0285234
-0.028685
-0.0288608
-0.0290519
-0.0292597
-0.0294855
-0.0297306
-0.0299966
-0.0302848
-0.0305966
-0.0309335
-0.0312971
-0.0316887
-0.0321098
-0.032562
-0.0330466
-0.033565
-0.0341186
-0.0347086
-0.0353363
-0.0360028
-0.036709
-0.0374558
-0.0382438
-0.0390735
-0.0399451
-0.0408586
-0.0418136
-0.0428093
-0.0438445
-0.0449177
-0.0460265
-0.0471683
-0.0483395
-0.0495358
-0.0507521
-0.0519823
-0.0532191
-0.0544543
-0.0556781
-0.0568795
-0.0240378
-0.0241677
-0.0242952
-0.0244137
-0.0245313
-0.0246498
-0.0247688
-0.0248878
-0.0250067
-0.0251254
-0.0252438
-0.0253617
-0.0254792
-0.0255959
-0.0257119
-0.0258269
-0.0259408
-0.0260535
-0.0261648
-0.0262746
-0.0263828
-0.0264893
-0.0265938
-0.0266963
-0.0267967
-0.0268948
-0.0269906
-0.0270839
-0.0271747
-0.0272629
-0.0273485
-0.0274314
-0.0275117
-0.0275893
-0.0276643
-0.0277367
-0.0278067
-0.0278744
-0.0279399
-0.0280034
-0.0280652
-0.0281255
-0.0281847
-0.028243
-0.028301
-0.028359
-0.0284175
-0.0284772
-0.0285385
-0.0286022
-0.028669
-0.0287395
-0.0288147
-0.0288953
-0.0289824
-0.0290768
-0.0291797
-0.0292921
-0.0294151
-0.0295499
-0.0296978
-0.02986
-0.0300379
-0.0302328
-0.0304461
-0.0306793
-0.0309338
-0.0312112
-0.031513
-0.0318407
-0.0321958
-0.03258
-0.0329946
-0.0334414
-0.0339218
-0.0344372
-0.0349891
-0.0355789
-0.0362077
-0.0368768
-0.0375873
-0.0383399
-0.0391355
-0.0399745
-0.0408573
-0.0417837
-0.0427536
-0.0437661
-0.0448201
-0.045914
-0.0470457
-0.0482123
-0.0494103
-0.0506354
-0.0518826
-0.0531455
-0.054417
-0.0556887
-0.0569507
-0.0581919
-0.0253092
-0.025443
-0.0255743
-0.0256964
-0.0258174
-0.0259394
-0.0260618
-0.0261842
-0.0263063
-0.0264282
-0.0265497
-0.0266707
-0.0267909
-0.0269104
-0.0270288
-0.0271461
-0.0272621
-0.0273767
-0.0274897
-0.0276008
-0.0277101
-0.0278173
-0.0279222
-0.0280247
-0.0281247
-0.0282221
-0.0283166
-0.0284083
-0.028497
-0.0285826
-0.028665
-0.0287443
-0.0288203
-0.0288932
-0.0289628
-0.0290293
-0.0290928
-0.0291533
-0.0292111
-0.0292663
-0.0293191
-0.0293699
-0.0294189
-0.0294665
-0.0295132
-0.0295594
-0.0296056
-0.0296524
-0.0297004
-0.0297504
-0.029803
-0.029859
-0.0299194
-0.029985
-0.0300567
-0.0301357
-0.030223
-0.0303198
-0.0304272
-0.0305465
-0.0306791
-0.0308261
-0.0309891
-0.0311695
-0.0313688
-0.0315884
-0.03183
-0.0320951
-0.0323852
-0.0327021
-0.0330473
-0.0334225
-0.0338293
-0.0342693
-0.034744
-0.035255
-0.0358039
-0.0363919
-0.0370205
-0.0376909
-0.0384042
-0.0391613
-0.0399631
-0.04081
-0.0417025
-0.0426405
-0.0436237
-0.0446515
-0.0457228
-0.0468359
-0.0479888
-0.0491785
-0.0504017
-0.0516539
-0.05293
-0.0542238
-0.0555281
-0.0568342
-0.0581323
-0.0594111
-0.0265774
-0.0267158
-0.0268517
-0.0269778
-0.0271029
-0.027229
-0.0273553
-0.0274816
-0.0276075
-0.0277331
-0.0278582
-0.0279825
-0.0281061
-0.0282286
-0.0283499
-0.0284699
-0.0285883
-0.028705
-0.0288198
-0.0289326
-0.029043
-0.029151
-0.0292564
-0.0293589
-0.0294585
-0.029555
-0.0296482
-0.029738
-0.0298243
-0.029907
-0.0299859
-0.030061
-0.0301323
-0.0301998
-0.0302634
-0.0303233
-0.0303795
-0.030432
-0.0304811
-0.030527
-0.0305699
-0.03061
-0.0306477
-0.0306834
-0.0307176
-0.0307506
-0.0307831
-0.0308157
-0.030849
-0.0308837
-0.0309207
-0.0309607
-0.0310046
-0.0310536
-0.0311084
-0.0311704
-0.0312405
-0.03132
-0.0314102
-0.0315124
-0.0316279
-0.0317582
-0.0319048
-0.0320691
-0.0322527
-0.0324572
-0.0326842
-0.0329354
-0.0332125
-0.0335171
-0.0338509
-0.0342157
-0.0346132
-0.0350449
-0.0355126
-0.0360179
-0.0365623
-0.0371473
-0.0377744
-0.0384447
-0.0391595
-0.0399198
-0.0407264
-0.0415799
-0.0424808
-0.0434289
-0.0444242
-0.0454659
-0.046553
-0.0476838
-0.0488563
-0.0500676
-0.0513142
-0.0525918
-0.0538951
-0.055218
-0.0565529
-0.0578915
-0.0592236
-0.0605378
-0.027843
-0.0279868
-0.0281278
-0.0282587
-0.0283884
-0.0285191
-0.02865
-0.0287807
-0.028911
-0.0290408
-0.0291699
-0.0292982
-0.0294255
-0.0295515
-0.0296761
-0.0297991
-0.0299202
-0.0300394
-0.0301563
-0.0302707
-0.0303825
-0.0304915
-0.0305973
-0.0306999
-0.0307991
-0.0308946
-0.0309862
-0.0310739
-0.0311575
-0.0312368
-0.0313118
-0.0313823
-0.0314483
-0.0315097
-0.0315667
-0.0316191
-0.0316671
-0.0317108
-0.0317503
-0.0317858
-0.0318176
-0.0318459
-0.0318712
-0.0318937
-0.031914
-0.0319325
-0.0319499
-0.0319668
-0.0319838
-0.0320018
-0.0320215
-0.0320439
-0.0320699
-0.0321005
-0.0321368
-0.03218
-0.0322313
-0.0322919
-0.0323633
-0.0324466
-0.0325435
-0.0326554
-0.0327839
-0.0329305
-0.0330969
-0.0332847
-0.0334957
-0.0337316
-0.0339941
-0.034285
-0.034606
-0.034959
-0.0353458
-0.035768
-0.0362273
-0.0367256
-0.0372643
-0.037845
-0.0384692
-0.0391383
-0.0398534
-0.0406156
-0.0414258
-0.0422846
-0.0431925
-0.0441496
-0.0451556
-0.0462098
-0.0473113
-0.0484584
-0.049649
-0.0508803
-0.0521488
-0.0534501
-0.0547789
-0.0561289
-0.0574928
-0.0588618
-0.0602258
-0.0615733
-0.0291064
-0.0292563
-0.0294032
-0.0295396
-0.0296746
-0.0298106
-0.0299467
-0.0300824
-0.0302177
-0.0303523
-0.030486
-0.0306187
-0.0307502
-0.0308802
-0.0310085
-0.0311348
-0.0312591
-0.0313809
-0.0315002
-0.0316165
-0.0317298
-0.0318398
-0.0319462
-0.0320488
-0.0321473
-0.0322417
-0.0323316
-0.0324169
-0.0324974
-0.032573
-0.0326435
-0.0327088
-0.0327689
-0.0328237
-0.0328732
-0.0329173
-0.0329563
-0.0329901
-0.0330189
-0.033043
-0.0330625
-0.0330778
-0.0330892
-0.0330972
-0.0331023
-0.0331049
-0.0331056
-0.0331053
-0.0331045
-0.0331041
-0.033105
-0.0331081
-0.0331145
-0.0331251
-0.0331413
-0.0331641
-0.0331948
-0.0332349
-0.0332857
-0.0333486
-0.0334252
-0.0335171
-0.0336259
-0.0337533
-0.0339009
-0.0340705
-0.034264
-0.034483
-0.0347296
-0.0350053
-0.0353123
-0.0356522
-0.0360269
-0.0364382
-0.036888
-0.037378
-0.0379098
-0.038485
-0.0391052
-0.0397718
-0.0404861
-0.041249
-0.0420617
-0.0429247
-0.0438385
-0.0448032
-0.0458186
-0.0468841
-0.0479987
-0.0491607
-0.0503681
-0.051618
-0.0529068
-0.0542301
-0.0555827
-0.0569582
-0.0583491
-0.0597466
-0.0611405
-0.0625192
-0.0303684
-0.0305253
-0.030679
-0.0308215
-0.0309626
-0.0311045
-0.0312464
-0.0313879
-0.0315287
-0.0316687
-0.0318076
-0.0319453
-0.0320815
-0.0322159
-0.0323483
-0.0324784
-0.0326061
-0.0327309
-0.0328528
-0.0329713
-0.0330862
-0.0331972
-0.0333042
-0.0334067
-0.0335046
-0.0335977
-0.0336856
-0.0337682
-0.0338452
-0.0339166
-0.0339821
-0.0340417
-0.0340951
-0.0341424
-0.0341836
-0.0342186
-0.0342475
-0.0342704
-0.0342874
-0.0342988
-0.0343049
-0.0343058
-0.0343021
-0.0342941
-0.0342824
-0.0342676
-0.0342502
-0.034231
-0.0342108
-0.0341904
-0.0341708
-0.034153
-0.034138
-0.034127
-0.0341212
-0.0341219
-0.0341304
-0.0341482
-0.0341768
-0.0342176
-0.0342724
-0.0343427
-0.0344302
-0.0345368
-0.0346641
-0.0348141
-0.0349886
-0.0351894
-0.0354186
-0.0356779
-0.0359694
-0.0362949
-0.0366564
-0.0370557
-0.0374948
-0.0379753
-0.038499
-0.0390677
-0.0396828
-0.0403459
-0.0410582
-0.0418208
-0.0426348
-0.0435009
-0.0444195
-0.0453907
-0.0464144
-0.04749
-0.0486165
-0.0497921
-0.0510149
-0.0522819
-0.0535896
-0.0549335
-0.0563083
-0.0577075
-0.0591237
-0.0605478
-0.0619697
-0.0633774
-0.0316299
-0.0317947
-0.031956
-0.0321054
-0.0322533
-0.0324019
-0.0325505
-0.0326984
-0.0328454
-0.0329914
-0.0331362
-0.0332794
-0.0334208
-0.0335601
-0.033697
-0.0338314
-0.0339628
-0.034091
-0.0342156
-0.0343364
-0.0344531
-0.0345653
-0.0346728
-0.0347752
-0.0348723
-0.0349638
-0.0350494
-0.0351289
-0.0352021
-0.0352687
-0.0353287
-0.0353817
-0.0354278
-0.0354668
-0.0354987
-0.0355236
-0.0355414
-0.0355522
-0.0355563
-0.0355538
-0.035545
-0.0355302
-0.0355099
-0.0354845
-0.0354545
-0.0354206
-0.0353835
-0.0353438
-0.0353025
-0.0352604
-0.0352186
-0.0351781
-0.03514
-0.0351056
-0.0350761
-0.035053
-0.0350376
-0.0350314
-0.0350361
-0.0350532
-0.0350844
-0.0351315
-0.0351963
-0.0352805
-0.0353861
-0.035515
-0.0356691
-0.0358504
-0.0360609
-0.0363026
-0.0365774
-0.0368873
-0.0372344
-0.0376206
-0.0380478
-0.0385178
-0.0390325
-0.0395936
-0.0402026
-0.0408611
-0.0415705
-0.0423319
-0.0431462
-0.0440143
-0.0449366
-0.0459134
-0.0469443
-0.0480289
-0.049166
-0.0503541
-0.051591
-0.0528739
-0.0541991
-0.0555621
-0.0569575
-0.0583789
-0.0598185
-0.0612675
-0.0627154
-0.0641501
-0.0328921
-0.0330657
-0.0332355
-0.0333927
-0.0335482
-0.0337043
-0.0338602
-0.0340153
-0.0341693
-0.034322
-0.0344732
-0.0346225
-0.0347697
-0.0349144
-0.0350564
-0.0351954
-0.0353309
-0.0354627
-0.0355904
-0.0357136
-0.0358322
-0.0359456
-0.0360536
-0.0361558
-0.0362519
-0.0363416
-0.0364246
-0.0365006
-0.0365694
-0.0366307
-0.0366844
-0.0367302
-0.0367681
-0.0367979
-0.0368196