/*--------------------------------*- C++ -*----------------------------------*\
| =========                 |                                                 |
| \\      /  F ield         | OpenFOAM: The Open Source CFD Toolbox           |
|  \\    /   O peration     | Version:  2406                                  |
|   \\  /    A nd           | Website:  www.openfoam.com                      |
|    \\/     M anipulation  |                                                 |
\*---------------------------------------------------------------------------*/
FoamFile
{
    version     2.0;
    format      ascii;
    arch        "LSB;label=32;scalar=64";
    class       surfaceScalarField;
    location    "6";
    object      phi;
}
// * * * * * * * * * * * * * * * * * * * * * * * * * * * * * * * * * * * * * //

dimensions      [0 3 -1 0 0 0 0];

oriented        oriented;

internalField   nonuniform List<scalar> 
79600
(
-5.67879e-09
1.80445e-07
-1.74767e-07
-2.29134e-08
5.483e-07
-5.31065e-07
-5.20903e-08
9.29106e-07
-8.99929e-07
-9.36004e-08
1.32307e-06
-1.28156e-06
-1.47839e-07
1.7304e-06
-1.67616e-06
-2.15207e-07
2.15129e-06
-2.08393e-06
-2.96107e-07
2.58594e-06
-2.50504e-06
-3.90947e-07
3.03451e-06
-2.93967e-06
-5.00137e-07
3.49719e-06
-3.388e-06
-6.2409e-07
3.97413e-06
-3.85017e-06
-7.63221e-07
4.46549e-06
-4.32635e-06
-9.17948e-07
4.9714e-06
-4.81667e-06
-1.08869e-06
5.492e-06
-5.32126e-06
-1.27586e-06
6.0274e-06
-5.84022e-06
-1.47989e-06
6.57769e-06
-6.37367e-06
-1.70118e-06
7.14298e-06
-6.92168e-06
-1.94016e-06
7.72332e-06
-7.48434e-06
-2.19725e-06
8.31878e-06
-8.06169e-06
-2.47285e-06
8.92939e-06
-8.65379e-06
-2.76738e-06
9.55518e-06
-9.26065e-06
-3.08124e-06
1.01961e-05
-9.88228e-06
-3.41484e-06
1.08523e-05
-1.05187e-05
-3.76857e-06
1.15235e-05
-1.11698e-05
-4.14283e-06
1.22098e-05
-1.18356e-05
-4.53799e-06
1.29112e-05
-1.2516e-05
-4.95444e-06
1.36274e-05
-1.32109e-05
-5.39254e-06
1.43583e-05
-1.39202e-05
-5.85266e-06
1.51039e-05
-1.46438e-05
-6.33515e-06
1.5864e-05
-1.53815e-05
-6.84034e-06
1.66383e-05
-1.61331e-05
-7.36856e-06
1.74266e-05
-1.68984e-05
-7.92013e-06
1.82287e-05
-1.76772e-05
-8.49536e-06
1.90444e-05
-1.84691e-05
-9.09453e-06
1.98732e-05
-1.9274e-05
-9.71793e-06
2.07149e-05
-2.00915e-05
-1.03658e-05
2.15691e-05
-2.09212e-05
-1.10384e-05
2.24354e-05
-2.17628e-05
-1.1736e-05
2.33134e-05
-2.26159e-05
-1.24587e-05
2.42027e-05
-2.348e-05
-1.32068e-05
2.51028e-05
-2.43546e-05
-1.39805e-05
2.60131e-05
-2.52394e-05
-1.47799e-05
2.69331e-05
-2.61337e-05
-1.56051e-05
2.78623e-05
-2.7037e-05
-1.64563e-05
2.88e-05
-2.79488e-05
-1.73336e-05
2.97456e-05
-2.88683e-05
-1.82371e-05
3.06984e-05
-2.97949e-05
-1.91669e-05
3.16577e-05
-3.07279e-05
-2.01229e-05
3.26227e-05
-3.16667e-05
-2.11054e-05
3.35928e-05
-3.26103e-05
-2.21142e-05
3.45669e-05
-3.35581e-05
-2.31494e-05
3.55443e-05
-3.45091e-05
-2.42109e-05
3.65241e-05
-3.54625e-05
-2.52988e-05
3.75052e-05
-3.64174e-05
-2.6413e-05
3.84868e-05
-3.73726e-05
-2.75534e-05
3.94677e-05
-3.83272e-05
-2.87201e-05
4.04468e-05
-3.92801e-05
-2.99128e-05
4.14229e-05
-4.02301e-05
-3.11316e-05
4.23948e-05
-4.1176e-05
-3.23763e-05
4.33612e-05
-4.21165e-05
-3.36468e-05
4.43207e-05
-4.30502e-05
-3.4943e-05
4.52718e-05
-4.39756e-05
-3.62649e-05
4.6213e-05
-4.48912e-05
-3.76122e-05
4.71425e-05
-4.57952e-05
-3.89849e-05
4.80587e-05
-4.6686e-05
-4.03828e-05
4.89595e-05
-4.75616e-05
-4.18059e-05
4.9843e-05
-4.84199e-05
-4.32539e-05
5.07068e-05
-4.92588e-05
-4.47269e-05
5.15488e-05
-5.00758e-05
-4.62246e-05
5.23662e-05
-5.08685e-05
-4.7747e-05
5.31564e-05
-5.1634e-05
-4.9294e-05
5.39163e-05
-5.23694e-05
-5.08654e-05
5.46428e-05
-5.30713e-05
-5.24612e-05
5.53322e-05
-5.37364e-05
-5.40812e-05
5.59808e-05
-5.43607e-05
-5.57254e-05
5.65844e-05
-5.49402e-05
-5.73936e-05
5.71385e-05
-5.54703e-05
-5.90858e-05
5.76382e-05
-5.5946e-05
-6.08019e-05
5.80782e-05
-5.63622e-05
-6.25416e-05
5.84527e-05
-5.6713e-05
-6.43049e-05
5.87554e-05
-5.69921e-05
-6.60914e-05
5.89793e-05
-5.71927e-05
-6.79012e-05
5.91171e-05
-5.73074e-05
-6.97337e-05
5.91606e-05
-5.73281e-05
-7.15887e-05
5.91012e-05
-5.72461e-05
-7.34658e-05
5.89291e-05
-5.70521e-05
-7.53643e-05
5.86342e-05
-5.67357e-05
-7.72837e-05
5.82053e-05
-5.62859e-05
-7.92231e-05
5.76304e-05
-5.5691e-05
-8.11816e-05
5.68964e-05
-5.4938e-05
-8.31578e-05
5.59894e-05
-5.40132e-05
-8.51504e-05
5.48944e-05
-5.29019e-05
-8.71575e-05
5.35953e-05
-5.15882e-05
-8.91769e-05
5.20748e-05
-5.00553e-05
-9.12062e-05
5.03145e-05
-4.82852e-05
-9.32421e-05
4.82949e-05
-4.6259e-05
-9.52811e-05
4.59953e-05
-4.39563e-05
-9.73187e-05
4.33936e-05
-4.1356e-05
-9.93498e-05
4.0467e-05
-3.84359e-05
-0.000101368
3.71912e-05
-3.51726e-05
3.35411e-05
-0.000103367
-3.15423e-05
-5.54864e-09
1.85994e-07
-2.23919e-08
5.65143e-07
-5.09096e-08
9.57623e-07
-9.14865e-08
1.36365e-06
-1.44512e-07
1.78343e-06
-2.10379e-07
2.21716e-06
-2.89486e-07
2.66504e-06
-3.82232e-07
3.12726e-06
-4.89022e-07
3.60398e-06
-6.10261e-07
4.09537e-06
-7.46358e-07
4.60158e-06
-8.97723e-07
5.12276e-06
-1.06477e-06
5.65904e-06
-1.2479e-06
6.21053e-06
-1.44753e-06
6.77733e-06
-1.66408e-06
7.35952e-06
-1.89795e-06
7.95719e-06
-2.14954e-06
8.57037e-06
-2.41927e-06
9.19912e-06
-2.70753e-06
9.84344e-06
-3.01472e-06
1.05033e-05
-3.34124e-06
1.11788e-05
-3.68747e-06
1.18697e-05
-4.05378e-06
1.25762e-05
-4.44057e-06
1.32979e-05
-4.84818e-06
1.4035e-05
-5.27698e-06
1.47871e-05
-5.72731e-06
1.55543e-05
-6.19952e-06
1.63362e-05
-6.69392e-06
1.71327e-05
-7.21083e-06
1.79435e-05
-7.75056e-06
1.87685e-05
-8.31339e-06
1.96072e-05
-8.8996e-06
2.04594e-05
-9.50944e-06
2.13247e-05
-1.01432e-05
2.22028e-05
-1.0801e-05
2.30932e-05
-1.14831e-05
2.39956e-05
-1.21898e-05
2.49094e-05
-1.29211e-05
2.58341e-05
-1.36773e-05
2.67693e-05
-1.44585e-05
2.77143e-05
-1.52648e-05
2.86686e-05
-1.60963e-05
2.96315e-05
-1.69532e-05
3.06024e-05
-1.78353e-05
3.15806e-05
-1.8743e-05
3.25653e-05
-1.9676e-05
3.35558e-05
-2.06345e-05
3.45513e-05
-2.16185e-05
3.55509e-05
-2.26279e-05
3.65537e-05
-2.36627e-05
3.75589e-05
-2.47228e-05
3.85654e-05
-2.58083e-05
3.95722e-05
-2.69189e-05
4.05783e-05
-2.80546e-05
4.15825e-05
-2.92154e-05
4.25836e-05
-3.0401e-05
4.35805e-05
-3.16115e-05
4.45716e-05
-3.28465e-05
4.55558e-05
-3.41062e-05
4.65314e-05
-3.53902e-05
4.7497e-05
-3.66984e-05
4.84508e-05
-3.80308e-05
4.93911e-05
-3.93872e-05
5.03159e-05
-4.07675e-05
5.12232e-05
-4.21715e-05
5.21108e-05
-4.35991e-05
5.29764e-05
-4.50503e-05
5.38174e-05
-4.65248e-05
5.4631e-05
-4.80227e-05
5.54142e-05
-4.95439e-05
5.61639e-05
-5.10882e-05
5.68765e-05
-5.26556e-05
5.75482e-05
-5.4246e-05
5.81748e-05
-5.58595e-05
5.8752e-05
-5.74959e-05
5.92746e-05
-5.91552e-05
5.97376e-05
-6.08374e-05
6.01349e-05
-6.25424e-05
6.04603e-05
-6.427e-05
6.0707e-05
-6.60204e-05
6.08674e-05
-6.77932e-05
6.09335e-05
-6.95883e-05
6.08963e-05
-7.14055e-05
6.07463e-05
-7.32444e-05
6.04732e-05
-7.51047e-05
6.00656e-05
-7.69858e-05
5.95115e-05
-7.88869e-05
5.87976e-05
-8.08073e-05
5.79098e-05
-8.27458e-05
5.68329e-05
-8.4701e-05
5.55505e-05
-8.66712e-05
5.4045e-05
-8.86544e-05
5.22977e-05
-9.06481e-05
5.02885e-05
-9.26491e-05
4.79963e-05
-9.46538e-05
4.53983e-05
-9.66578e-05
4.2471e-05
-9.86558e-05
3.91892e-05
3.55269e-05
-0.000100641
-5.41885e-09
1.91412e-07
-2.18709e-08
5.81595e-07
-4.97298e-08
9.85482e-07
-8.9374e-08
1.40329e-06
-1.41186e-07
1.83524e-06
-2.05554e-07
2.28153e-06
-2.82867e-07
2.74236e-06
-3.7352e-07
3.21791e-06
-4.77909e-07
3.70836e-06
-5.96433e-07
4.21389e-06
-7.29493e-07
4.73464e-06
-8.77492e-07
5.27076e-06
-1.04083e-06
5.82238e-06
-1.21992e-06
6.38961e-06
-1.41515e-06
6.97256e-06
-1.62694e-06
7.57131e-06
-1.85568e-06
8.18592e-06
-2.10176e-06
8.81646e-06
-2.36559e-06
9.46295e-06
-2.64756e-06
1.01254e-05
-2.94805e-06
1.08038e-05
-3.26745e-06
1.14982e-05
-3.60613e-06
1.22084e-05
-3.96446e-06
1.29345e-05
-4.3428e-06
1.36763e-05
-4.74151e-06
1.44337e-05
-5.16092e-06
1.52066e-05
-5.60138e-06
1.59947e-05
-6.0632e-06
1.6798e-05
-6.5467e-06
1.76162e-05
-7.05217e-06
1.8449e-05
-7.57991e-06
1.92962e-05
-8.13017e-06
2.01574e-05
-8.70322e-06
2.10324e-05
-9.29931e-06
2.19208e-05
-9.91864e-06
2.28221e-05
-1.05614e-05
2.3736e-05
-1.12279e-05
2.4662e-05
-1.19182e-05
2.55996e-05
-1.26324e-05
2.65484e-05
-1.33708e-05
2.75076e-05
-1.41334e-05
2.84769e-05
-1.49203e-05
2.94555e-05
-1.57316e-05
3.04428e-05
-1.65674e-05
3.14382e-05
-1.74277e-05
3.24409e-05
-1.83125e-05
3.34501e-05
-1.92219e-05
3.44652e-05
-2.01558e-05
3.54851e-05
-2.11141e-05
3.65092e-05
-2.20969e-05
3.75365e-05
-2.31041e-05
3.8566e-05
-2.41355e-05
3.95968e-05
-2.51912e-05
4.06279e-05
-2.62709e-05
4.1658e-05
-2.73746e-05
4.26862e-05
-2.85021e-05
4.37111e-05
-2.96533e-05
4.47317e-05
-3.08281e-05
4.57464e-05
-3.20262e-05
4.6754e-05
-3.32477e-05
4.77529e-05
-3.44922e-05
4.87415e-05
-3.57596e-05
4.97183e-05
-3.70499e-05
5.06813e-05
-3.83628e-05
5.16288e-05
-3.96982e-05
5.25586e-05
-4.1056e-05
5.34686e-05
-4.2436e-05
5.43564e-05
-4.38381e-05
5.52195e-05
-4.52623e-05
5.60552e-05
-4.67085e-05
5.68604e-05
-4.81766e-05
5.7632e-05
-4.96665e-05
5.83664e-05
-5.11782e-05
5.90599e-05
-5.27117e-05
5.97083e-05
-5.42669e-05
6.03072e-05
-5.5844e-05
6.08517e-05
-5.74428e-05
6.13364e-05
-5.90636e-05
6.17556e-05
-6.07062e-05
6.21029e-05
-6.23707e-05
6.23715e-05
-6.40571e-05
6.25539e-05
-6.57655e-05
6.26418e-05
-6.74958e-05
6.26266e-05
-6.9248e-05
6.24985e-05
-7.10219e-05
6.22471e-05
-7.28174e-05
6.18611e-05
-7.46342e-05
6.13282e-05
-7.64718e-05
6.06352e-05
-7.83298e-05
5.97678e-05
-8.02074e-05
5.87105e-05
-8.21036e-05
5.74467e-05
-8.40172e-05
5.59586e-05
-8.59466e-05
5.42271e-05
-8.78898e-05
5.22318e-05
-8.98444e-05
4.99509e-05
-9.18073e-05
4.73613e-05
-9.3775e-05
4.44386e-05
-9.57429e-05
4.11571e-05
3.74896e-05
-9.77056e-05
-5.29031e-09
1.96703e-07
-2.13548e-08
5.9766e-07
-4.85613e-08
1.01269e-06
-8.7282e-08
1.44201e-06
-1.37893e-07
1.88585e-06
-2.00776e-07
2.34441e-06
-2.76313e-07
2.81789e-06
-3.64893e-07
3.30649e-06
-4.66904e-07
3.81038e-06
-5.82739e-07
4.32973e-06
-7.12791e-07
4.8647e-06
-8.57455e-07
5.41543e-06
-1.01713e-06
5.98205e-06
-1.1922e-06
6.56469e-06
-1.38307e-06
7.16343e-06
-1.59014e-06
7.77837e-06
-1.81378e-06
8.40957e-06
-2.0544e-06
9.05708e-06
-2.31237e-06
9.72092e-06
-2.58808e-06
1.04011e-05
-2.88191e-06
1.10977e-05
-3.19422e-06
1.18105e-05
-3.52538e-06
1.25396e-05
-3.87574e-06
1.32849e-05
-4.24567e-06
1.40462e-05
-4.63548e-06
1.48235e-05
-5.04552e-06
1.56166e-05
-5.4761e-06
1.64253e-05
-5.92753e-06
1.72494e-05
-6.40011e-06
1.80888e-05
-6.89411e-06
1.8943e-05
-7.4098e-06
1.98119e-05
-7.94745e-06
2.06951e-05
-8.50727e-06
2.15923e-05
-9.0895e-06
2.2503e-05
-9.69433e-06
2.3427e-05
-1.0322e-05
2.43636e-05
-1.09725e-05
2.53126e-05
-1.16462e-05
2.62733e-05
-1.23432e-05
2.72453e-05
-1.30635e-05
2.82279e-05
-1.38072e-05
2.92206e-05
-1.45744e-05
3.02227e-05
-1.53652e-05
3.12336e-05
-1.61796e-05
3.22526e-05
-1.70176e-05
3.32789e-05
-1.78792e-05
3.43117e-05
-1.87643e-05
3.53503e-05
-1.9673e-05
3.63938e-05
-2.06051e-05
3.74414e-05
-2.15606e-05
3.8492e-05
-2.25394e-05
3.95448e-05
-2.35413e-05
4.05988e-05
-2.45663e-05
4.16528e-05
-2.56142e-05
4.27059e-05
-2.66848e-05
4.37568e-05
-2.77781e-05
4.48044e-05
-2.88937e-05
4.58473e-05
-3.00316e-05
4.68843e-05
-3.11915e-05
4.79139e-05
-3.23734e-05
4.89347e-05
-3.3577e-05
4.99451e-05
-3.48021e-05
5.09434e-05
-3.60485e-05
5.19278e-05
-3.73162e-05
5.28964e-05
-3.86049e-05
5.38473e-05
-3.99145e-05
5.47782e-05
-4.12448e-05
5.56868e-05
-4.25958e-05
5.65705e-05
-4.39674e-05
5.74267e-05
-4.53594e-05
5.82524e-05
-4.67719e-05
5.90444e-05
-4.82047e-05
5.97992e-05
-4.96579e-05
6.05131e-05
-5.11315e-05
6.11819e-05
-5.26255e-05
6.18012e-05
-5.414e-05
6.23662e-05
-5.5675e-05
6.28715e-05
-5.72307e-05
6.33113e-05
-5.88072e-05
6.36794e-05
-6.04047e-05
6.39689e-05
-6.20231e-05
6.41723e-05
-6.36628e-05
6.42815e-05
-6.53238e-05
6.42876e-05
-6.70062e-05
6.41809e-05
-6.87102e-05
6.39511e-05
-7.04357e-05
6.35866e-05
-7.21827e-05
6.30753e-05
-7.39512e-05
6.24037e-05
-7.57408e-05
6.15574e-05
-7.75512e-05
6.05209e-05
-7.93818e-05
5.92773e-05
-8.12318e-05
5.78086e-05
-8.31001e-05
5.60954e-05
-8.49852e-05
5.41169e-05
-8.68854e-05
5.18511e-05
-8.87983e-05
4.92742e-05
-9.07209e-05
4.63612e-05
-9.26496e-05
4.30857e-05
3.94198e-05
-9.45798e-05
-5.16418e-09
2.01867e-07
-2.08487e-08
6.13344e-07
-4.74154e-08
1.03926e-06
-8.52305e-08
1.47983e-06
-1.34664e-07
1.93529e-06
-1.96091e-07
2.40584e-06
-2.69888e-07
2.89169e-06
-3.56435e-07
3.39304e-06
-4.56115e-07
3.91006e-06
-5.69314e-07
4.44292e-06
-6.96416e-07
4.9918e-06
-8.37809e-07
5.55682e-06
-9.93881e-07
6.13813e-06
-1.16502e-06
6.73583e-06
-1.35161e-06
7.35002e-06
-1.55403e-06
7.98079e-06
-1.77267e-06
8.62821e-06
-2.00791e-06
9.29231e-06
-2.26012e-06
9.97313e-06
-2.52967e-06
1.06707e-05
-2.81693e-06
1.13849e-05
-3.12226e-06
1.21158e-05
-3.446e-06
1.28633e-05
-3.7885e-06
1.36274e-05
-4.1501e-06
1.44078e-05
-4.53112e-06
1.52045e-05
-4.93188e-06
1.60174e-05
-5.35267e-06
1.68461e-05
-5.79379e-06
1.76906e-05
-6.25552e-06
1.85505e-05
-6.73811e-06
1.94256e-05
-7.24182e-06
2.03156e-05
-7.76688e-06
2.12201e-05
-8.31351e-06
2.21389e-05
-8.88189e-06
2.30714e-05
-9.47222e-06
2.40173e-05
-1.00847e-05
2.49761e-05
-1.07193e-05
2.59473e-05
-1.13764e-05
2.69304e-05
-1.20559e-05
2.79248e-05
-1.2758e-05
2.893e-05
-1.34827e-05
2.99453e-05
-1.423e-05
3.09701e-05
-1.50001e-05
3.20037e-05
-1.57928e-05
3.30453e-05
-1.66082e-05
3.40942e-05
-1.74462e-05
3.51497e-05
-1.83067e-05
3.62109e-05
-1.91898e-05
3.72769e-05
-2.00952e-05
3.83468e-05
-2.10229e-05
3.94197e-05
-2.19727e-05
4.04946e-05
-2.29445e-05
4.15706e-05
-2.39381e-05
4.26465e-05
-2.49534e-05
4.37212e-05
-2.59902e-05
4.47936e-05
-2.70482e-05
4.58624e-05
-2.81273e-05
4.69264e-05
-2.92273e-05
4.79843e-05
-3.03479e-05
4.90346e-05
-3.1489e-05
5.00758e-05
-3.26503e-05
5.11064e-05
-3.38317e-05
5.21247e-05
-3.50329e-05
5.3129e-05
-3.62538e-05
5.41173e-05
-3.74941e-05
5.50877e-05
-3.87538e-05
5.60379e-05
-4.00327e-05
5.69657e-05
-4.13306e-05
5.78685e-05
-4.26475e-05
5.87436e-05
-4.39832e-05
5.95882e-05
-4.53378e-05
6.0399e-05
-4.67112e-05
6.11726e-05
-4.81034e-05
6.19053e-05
-4.95145e-05
6.2593e-05
-5.09445e-05
6.32312e-05
-5.23935e-05
6.38152e-05
-5.38617e-05
6.43397e-05
-5.53492e-05
6.47988e-05
-5.68563e-05
6.51865e-05
-5.83831e-05
6.54957e-05
-5.99299e-05
6.57191e-05
-6.1497e-05
6.58486e-05
-6.30846e-05
6.58752e-05
-6.4693e-05
6.57894e-05
-6.63225e-05
6.55806e-05
-6.79733e-05
6.52374e-05
-6.96457e-05
6.47476e-05
-7.13397e-05
6.40977e-05
-7.30555e-05
6.32731e-05
-7.47929e-05
6.22583e-05
-7.65518e-05
6.10362e-05
-7.83318e-05
5.95886e-05
-8.01323e-05
5.78959e-05
-8.19524e-05
5.5937e-05
-8.37908e-05
5.36895e-05
-8.56458e-05
5.11292e-05
-8.75151e-05
4.82306e-05
-8.9396e-05
4.49666e-05
4.13086e-05
-9.12848e-05
-5.04181e-09
2.06909e-07
-2.03577e-08
6.2866e-07
-4.63038e-08
1.0652e-06
-8.32406e-08
1.51677e-06
-1.31532e-07
1.98358e-06
-1.91547e-07
2.46585e-06
-2.63656e-07
2.9638e-06
-3.48232e-07
3.47761e-06
-4.45652e-07
4.00748e-06
-5.56293e-07
4.55356e-06
-6.80533e-07
5.11604e-06
-8.18751e-07
5.69504e-06
-9.71328e-07
6.2907e-06
-1.13864e-06
6.90314e-06
-1.32107e-06
7.53245e-06
-1.51898e-06
8.17871e-06
-1.73276e-06
8.84199e-06
-1.96276e-06
9.52232e-06
-2.20936e-06
1.02197e-05
-2.47291e-06
1.09342e-05
-2.75376e-06
1.16658e-05
-3.05227e-06
1.24143e-05
-3.36876e-06
1.31798e-05
-3.70357e-06
1.39622e-05
-4.05702e-06
1.47613e-05
-4.42942e-06
1.55769e-05
-4.82106e-06
1.6409e-05
-5.23224e-06
1.72573e-05
-5.66322e-06
1.81215e-05
-6.11425e-06
1.90015e-05
-6.5856e-06
1.98969e-05
-7.07747e-06
2.08075e-05
-7.59008e-06
2.17328e-05
-8.12363e-06
2.26724e-05
-8.67829e-06
2.36261e-05
-9.25421e-06
2.45932e-05
-9.85153e-06
2.55734e-05
-1.04704e-05
2.65661e-05
-1.11108e-05
2.75708e-05
-1.17729e-05
2.85869e-05
-1.24568e-05
2.96139e-05
-1.31625e-05
3.06509e-05
-1.38899e-05
3.16975e-05
-1.46391e-05
3.27528e-05
-1.541e-05
3.38162e-05
-1.62026e-05
3.48868e-05
-1.70168e-05
3.59639e-05
-1.78525e-05
3.70466e-05
-1.87096e-05
3.8134e-05
-1.9588e-05
3.92251e-05
-2.04874e-05
4.03192e-05
-2.14079e-05
4.14151e-05
-2.2349e-05
4.25118e-05
-2.33107e-05
4.36082e-05
-2.42928e-05
4.47032e-05
-2.5295e-05
4.57958e-05
-2.63171e-05
4.68845e-05
-2.73588e-05
4.79682e-05
-2.842e-05
4.90454e-05
-2.95004e-05
5.01149e-05
-3.05997e-05
5.11751e-05
-3.17177e-05
5.22244e-05
-3.28542e-05
5.32612e-05
-3.40089e-05
5.42837e-05
-3.51817e-05
5.52901e-05
-3.63723e-05
5.62783e-05
-3.75805e-05
5.72462e-05
-3.88063e-05
5.81914e-05
-4.00495e-05
5.91116e-05
-4.13099e-05
6.0004e-05
-4.25875e-05
6.08658e-05
-4.38823e-05
6.16937e-05
-4.51941e-05
6.24845e-05
-4.65231e-05
6.32343e-05
-4.78694e-05
6.39392e-05
-4.92329e-05
6.45948e-05
-5.06139e-05
6.51962e-05
-5.20125e-05
6.57383e-05
-5.3429e-05
6.62153e-05
-5.48636e-05
6.66211e-05
-5.63167e-05
6.69488e-05
-5.77886e-05
6.7191e-05
-5.92796e-05
6.73396e-05
-6.07902e-05
6.73858e-05
-6.23208e-05
6.73199e-05
-6.38718e-05
6.71316e-05
-6.54437e-05
6.68094e-05
-6.70369e-05
6.63408e-05
-6.86518e-05
6.57126e-05
-7.02888e-05
6.49101e-05
-7.19481e-05
6.39176e-05
-7.36298e-05
6.27179e-05
-7.53341e-05
6.12928e-05
-7.70607e-05
5.96225e-05
-7.88092e-05
5.76855e-05
-8.05789e-05
5.54592e-05
-8.23689e-05
5.29191e-05
-8.41774e-05
5.00391e-05
-8.60025e-05
4.67917e-05
4.31474e-05
-8.78413e-05
-4.92448e-09
2.11833e-07
-1.98869e-08
6.43623e-07
-4.52382e-08
1.09055e-06
-8.13332e-08
1.55286e-06
-1.28531e-07
2.03077e-06
-1.87192e-07
2.52451e-06
-2.57683e-07
3.03429e-06
-3.40369e-07
3.5603e-06
-4.35621e-07
4.10273e-06
-5.43809e-07
4.66175e-06
-6.65303e-07
5.23753e-06
-8.00475e-07
5.83021e-06
-9.49696e-07
6.43992e-06
-1.11334e-06
7.06678e-06
-1.29176e-06
7.71087e-06
-1.48534e-06
8.37229e-06
-1.69443e-06
9.05108e-06
-1.91939e-06
9.74728e-06
-2.16058e-06
1.04609e-05
-2.41833e-06
1.1192e-05
-2.693e-06
1.19404e-05
-2.98491e-06
1.27062e-05
-3.29439e-06
1.34893e-05
-3.62175e-06
1.42895e-05
-3.96729e-06
1.51068e-05
-4.33131e-06
1.59409e-05
-4.71409e-06
1.67918e-05
-5.11589e-06
1.76591e-05
-5.53697e-06
1.85426e-05
-5.97757e-06
1.94421e-05
-6.4379e-06
2.03573e-05
-6.91817e-06
2.12877e-05
-7.41857e-06
2.22332e-05
-7.93926e-06
2.31931e-05
-8.4804e-06
2.41672e-05
-9.04211e-06
2.51549e-05
-9.6245e-06
2.61558e-05
-1.02277e-05
2.71693e-05
-1.08516e-05
2.81948e-05
-1.14965e-05
2.92318e-05
-1.21623e-05
3.02796e-05
-1.28489e-05
3.13376e-05
-1.35565e-05
3.2405e-05
-1.42848e-05
3.34812e-05
-1.50339e-05
3.45653e-05
-1.58037e-05
3.56566e-05
-1.6594e-05
3.67542e-05
-1.74048e-05
3.78573e-05
-1.82358e-05
3.8965e-05
-1.90869e-05
4.00762e-05
-1.99579e-05
4.11902e-05
-2.08485e-05
4.23057e-05
-2.17587e-05
4.34219e-05
-2.26881e-05
4.45376e-05
-2.36365e-05
4.56516e-05
-2.46036e-05
4.67629e-05
-2.55892e-05
4.78701e-05
-2.65929e-05
4.89719e-05
-2.76146e-05
5.00671e-05
-2.86539e-05
5.11542e-05
-2.97106e-05
5.22318e-05
-3.07843e-05
5.32982e-05
-3.18749e-05
5.43518e-05
-3.29821e-05
5.53909e-05
-3.41056e-05
5.64136e-05
-3.52453e-05
5.74179e-05
-3.64008e-05
5.84017e-05
-3.75721e-05
5.93628e-05
-3.87591e-05
6.02986e-05
-3.99615e-05
6.12064e-05
-4.11793e-05
6.20836e-05
-4.24124e-05
6.29269e-05
-4.3661e-05
6.3733e-05
-4.49248e-05
6.44982e-05
-4.62042e-05
6.52186e-05
-4.74992e-05
6.58897e-05
-4.88099e-05
6.65069e-05
-5.01366e-05
6.7065e-05
-5.14796e-05
6.75583e-05
-5.28392e-05
6.79807e-05
-5.42158e-05
6.83254e-05
-5.56098e-05
6.8585e-05
-5.70218e-05
6.87515e-05
-5.84522e-05
6.88162e-05
-5.99016e-05
6.87694e-05
-6.13706e-05
6.86006e-05
-6.28598e-05
6.82986e-05
-6.437e-05
6.7851e-05
-6.59016e-05
6.72442e-05
-6.74554e-05
6.64639e-05
-6.90318e-05
6.5494e-05
-7.06315e-05
6.43176e-05
-7.22548e-05
6.29161e-05
-7.3902e-05
6.12696e-05
-7.55731e-05
5.93567e-05
-7.7268e-05
5.71541e-05
-7.89863e-05
5.46374e-05
-8.07271e-05
5.17799e-05
-8.2489e-05
4.85536e-05
4.49284e-05
-8.427e-05
-4.81343e-09
2.16647e-07
-1.94415e-08
6.58251e-07
-4.42299e-08
1.11534e-06
-7.95284e-08
1.58816e-06
-1.2569e-07
2.07694e-06
-1.83071e-07
2.5819e-06
-2.5203e-07
3.10325e-06
-3.32928e-07
3.6412e-06
-4.26128e-07
4.19593e-06
-5.31991e-07
4.76762e-06
-6.50883e-07
5.35642e-06
-7.83167e-07
5.9625e-06
-9.29204e-07
6.58596e-06
-1.08936e-06
7.22693e-06
-1.26398e-06
7.8855e-06
-1.45344e-06
8.56174e-06
-1.65807e-06
9.25571e-06
-1.87823e-06
9.96744e-06
-2.11425e-06
1.06969e-05
-2.36648e-06
1.14442e-05
-2.63523e-06
1.22092e-05
-2.92083e-06
1.29918e-05
-3.22359e-06
1.37921e-05
-3.54379e-06
1.46097e-05
-3.88173e-06
1.54447e-05
-4.23769e-06
1.62969e-05
-4.61192e-06
1.7166e-05
-5.00468e-06
1.80518e-05
-5.41619e-06
1.89541e-05
-5.84666e-06
1.98726e-05
-6.2963e-06
2.08069e-05
-6.76529e-06
2.17567e-05
-7.25379e-06
2.27217e-05
-7.76193e-06
2.37013e-05
-8.28985e-06
2.46951e-05
-8.83763e-06
2.57027e-05
-9.40537e-06
2.67235e-05
-9.99311e-06
2.7757e-05
-1.06009e-05
2.88026e-05
-1.12287e-05
2.98596e-05
-1.18766e-05
3.09275e-05
-1.25444e-05
3.20055e-05
-1.32322e-05
3.30928e-05
-1.39398e-05
3.41888e-05
-1.46672e-05
3.52927e-05
-1.54142e-05
3.64036e-05
-1.61807e-05
3.75207e-05
-1.69664e-05
3.86431e-05
-1.77713e-05
3.97698e-05
-1.8595e-05
4.09e-05
-1.94374e-05
4.20326e-05
-2.02982e-05
4.31665e-05
-2.11771e-05
4.43008e-05
-2.20739e-05
4.54344e-05
-2.29882e-05
4.6566e-05
-2.39199e-05
4.76945e-05
-2.48685e-05
4.88187e-05
-2.58337e-05
4.99372e-05
-2.68153e-05
5.10487e-05
-2.7813e-05
5.21518e-05
-2.88263e-05
5.32451e-05
-2.98551e-05
5.43269e-05
-3.0899e-05
5.53957e-05
-3.19577e-05
5.64496e-05
-3.3031e-05
5.74869e-05
-3.41186e-05
5.85056e-05
-3.52204e-05
5.95035e-05
-3.63361e-05
6.04784e-05
-3.74655e-05
6.1428e-05
-3.86086e-05
6.23495e-05
-3.97652e-05
6.32402e-05
-4.09353e-05
6.4097e-05
-4.21189e-05
6.49166e-05
-4.3316e-05
6.56953e-05
-4.45268e-05
6.64293e-05
-4.57513e-05
6.71142e-05
-4.69898e-05
6.77454e-05
-4.82426e-05
6.83178e-05
-4.951e-05
6.88257e-05
-5.07923e-05
6.9263e-05
-5.20901e-05
6.96232e-05
-5.34038e-05
6.98987e-05
-5.4734e-05
7.00818e-05
-5.60815e-05
7.01636e-05
-5.74468e-05
7.01347e-05
-5.88307e-05
6.99846e-05
-6.02341e-05
6.9702e-05
-6.16577e-05
6.92746e-05
-6.31025e-05
6.8689e-05
-6.45692e-05
6.79306e-05
-6.60588e-05
6.69836e-05
-6.75721e-05
6.58309e-05
-6.91098e-05
6.44538e-05
-7.06727e-05
6.28325e-05
-7.22612e-05
6.09452e-05
-7.38758e-05
5.87687e-05
-7.55165e-05
5.62781e-05
-7.71832e-05
5.34466e-05
-7.88752e-05
5.02455e-05
4.66446e-05
-8.05914e-05
-4.70987e-09
2.21356e-07
-1.9026e-08
6.72567e-07
-4.32896e-08
1.1396e-06
-7.78455e-08
1.62271e-06
-1.23041e-07
2.12213e-06
-1.79228e-07
2.63808e-06
-2.46758e-07
3.17078e-06
-3.25987e-07
3.72042e-06
-4.1727e-07
4.28721e-06
-5.20963e-07
4.87131e-06
-6.37423e-07
5.47288e-06
-7.67004e-07
6.09208e-06
-9.10062e-07
6.72902e-06
-1.06695e-06
7.38382e-06
-1.23801e-06
8.05656e-06
-1.42359e-06
8.74732e-06
-1.62404e-06
9.45615e-06
-1.83968e-06
1.01831e-05
-2.07084e-06
1.09281e-05
-2.31785e-06
1.16912e-05
-2.58102e-06
1.24724e-05
-2.86064e-06
1.32715e-05
-3.15702e-06
1.40884e-05
-3.47043e-06
1.49232e-05
-3.80115e-06
1.57755e-05
-4.14942e-06
1.66452e-05
-4.51549e-06
1.75321e-05
-4.89958e-06
1.84359e-05
-5.30191e-06
1.93565e-05
-5.72266e-06
2.02934e-05
-6.16201e-06
2.12463e-05
-6.62011e-06
2.22148e-05
-7.0971e-06
2.31986e-05
-7.59309e-06
2.41973e-05
-8.10816e-06
2.52102e-05
-8.64239e-06
2.62369e-05
-9.19583e-06
2.7277e-05
-9.7685e-06
2.83297e-05
-1.03604e-05
2.93945e-05
-1.09715e-05
3.04707e-05
-1.16017e-05
3.15577e-05
-1.2251e-05
3.26548e-05
-1.29193e-05
3.37611e-05
-1.36065e-05
3.4876e-05
-1.43123e-05
3.59986e-05
-1.50367e-05
3.7128e-05
-1.57794e-05
3.82634e-05
-1.65403e-05
3.94039e-05
-1.7319e-05
4.05486e-05
-1.81154e-05
4.16963e-05
-1.89291e-05
4.28463e-05
-1.976e-05
4.39973e-05
-2.06075e-05
4.51484e-05
-2.14715e-05
4.62984e-05
-2.23516e-05
4.74461e-05
-2.32475e-05
4.85904e-05
-2.41588e-05
4.973e-05
-2.50852e-05
5.08635e-05
-2.60263e-05
5.19898e-05
-2.69817e-05
5.31073e-05
-2.79512e-05
5.42146e-05
-2.89344e-05
5.53101e-05
-2.99309e-05
5.63922e-05
-3.09405e-05
5.74592e-05
-3.19628e-05
5.85092e-05
-3.29976e-05
5.95404e-05
-3.40447e-05
6.05506e-05
-3.51037e-05
6.15375e-05
-3.61747e-05
6.24989e-05
-3.72573e-05
6.34322e-05
-3.83515e-05
6.43345e-05
-3.94573e-05
6.52028e-05
-4.05747e-05
6.60339e-05
-4.17037e-05
6.68243e-05
-4.28444e-05
6.757e-05
-4.39969e-05
6.82668e-05
-4.51616e-05
6.89101e-05
-4.63388e-05
6.94949e-05
-4.75287e-05
7.00156e-05
-4.87319e-05
7.04662e-05
-4.99488e-05
7.08401e-05
-5.11801e-05
7.11301e-05
-5.24265e-05
7.13282e-05
-5.36886e-05
7.14258e-05
-5.49674e-05
7.14134e-05
-5.62636e-05
7.12808e-05
-5.75783e-05
7.10167e-05
-5.89125e-05
7.06088e-05
-6.02673e-05
7.00438e-05
-6.16437e-05
6.9307e-05
-6.30429e-05
6.83828e-05
-6.44661e-05
6.7254e-05
-6.59143e-05
6.5902e-05
-6.73885e-05
6.43068e-05
-6.88899e-05
6.24466e-05
-7.04193e-05
6.02981e-05
-7.19772e-05
5.7836e-05
-7.35642e-05
5.50335e-05
-7.51802e-05
5.18616e-05
4.82894e-05
-7.6825e-05
-4.61487e-09
2.25971e-07
-1.86451e-08
6.86597e-07
-4.24275e-08
1.16339e-06
-7.63024e-08
1.65659e-06
-1.20613e-07
2.16644e-06
-1.75704e-07
2.69317e-06
-2.41923e-07
3.237e-06
-3.1962e-07
3.79812e-06
-4.09142e-07
4.37673e-06
-5.1084e-07
4.97301e-06
-6.25063e-07
5.58711e-06
-7.52157e-07
6.21917e-06
-8.92469e-07
6.86933e-06
-1.04634e-06
7.53769e-06
-1.21411e-06
8.22433e-06
-1.39611e-06
8.92933e-06
-1.59268e-06
9.65272e-06
-1.80413e-06
1.03945e-05
-2.03077e-06
1.11548e-05
-2.27292e-06
1.19334e-05
-2.53088e-06
1.27303e-05
-2.80492e-06
1.35455e-05
-3.09533e-06
1.43788e-05
-3.40236e-06
1.52302e-05
-3.72628e-06
1.60994e-05
-4.0673e-06
1.69862e-05
-4.42566e-06
1.78904e-05
-4.80155e-06
1.88118e-05
-5.19515e-06
1.97501e-05
-5.60665e-06
2.07048e-05
-6.03617e-06
2.16758e-05
-6.48385e-06
2.26625e-05
-6.94979e-06
2.36646e-05
-7.43408e-06
2.46815e-05
-7.93677e-06
2.57129e-05
-8.4579e-06
2.67581e-05
-8.99748e-06
2.78165e-05
-9.5555e-06
2.88877e-05
-1.01319e-05
2.99709e-05
-1.07267e-05
3.10655e-05
-1.13397e-05
3.21707e-05
-1.19708e-05
3.32859e-05
-1.26199e-05
3.44102e-05
-1.32869e-05
3.55429e-05
-1.39715e-05
3.66832e-05
-1.46735e-05
3.783e-05
-1.53927e-05
3.89826e-05
-1.61289e-05
4.01401e-05
-1.68817e-05
4.13013e-05
-1.76508e-05
4.24655e-05
-1.84359e-05
4.36314e-05
-1.92368e-05
4.47982e-05
-2.0053e-05
4.59646e-05
-2.08841e-05
4.71295e-05
-2.17299e-05
4.82919e-05
-2.25899e-05
4.94504e-05
-2.34637e-05
5.06038e-05
-2.43509e-05
5.17508e-05
-2.52512e-05
5.28901e-05
-2.61641e-05
5.40202e-05
-2.70893e-05
5.51398e-05
-2.80264e-05
5.62472e-05
-2.89751e-05
5.73409e-05
-2.99349e-05
5.8419e-05
-3.09056e-05
5.94799e-05
-3.18869e-05
6.05217e-05
-3.28785e-05
6.15422e-05
-3.38802e-05
6.25392e-05
-3.48918e-05
6.35105e-05
-3.59131e-05
6.44535e-05
-3.6944e-05
6.53654e-05
-3.79845e-05
6.62433e-05
-3.90345e-05
6.7084e-05
-4.00942e-05
6.7884e-05
-4.11636e-05
6.86394e-05
-4.2243e-05
6.93462e-05
-4.33325e-05
6.99997e-05
-4.44326e-05
7.0595e-05
-4.55436e-05
7.11266e-05
-4.66661e-05
7.15887e-05
-4.78006e-05
7.19746e-05
-4.89477e-05
7.22772e-05
-5.01084e-05
7.24888e-05
-5.12833e-05
7.26007e-05
-5.24735e-05
7.26036e-05
-5.36799e-05
7.24872e-05
-5.49037e-05
7.22405e-05
-5.6146e-05
7.18512e-05
-5.74082e-05
7.13059e-05
-5.86916e-05
7.05904e-05
-5.99974e-05
6.96887e-05
-6.13273e-05
6.85839e-05
-6.26825e-05
6.72573e-05
-6.40646e-05
6.56889e-05
-6.54749e-05
6.38569e-05
-6.69147e-05
6.17379e-05
-6.83853e-05
5.93066e-05
-6.98876e-05
5.65358e-05
-7.14224e-05
5.33964e-05
4.9857e-05
-7.299e-05
-4.52952e-09
2.30501e-07
-1.83029e-08
7.0037e-07
-4.16531e-08
1.18674e-06
-7.49162e-08
1.68985e-06
-1.18431e-07
2.20996e-06
-1.72537e-07
2.74728e-06
-2.37578e-07
3.30204e-06
-3.13896e-07
3.87444e-06
-4.01833e-07
4.46467e-06
-5.01734e-07
5.07291e-06
-6.13938e-07
5.69931e-06
-7.38786e-07
6.34402e-06
-8.76614e-07
7.00716e-06
-1.02776e-06
7.68883e-06
-1.19254e-06
8.38911e-06
-1.37129e-06
9.10807e-06
-1.56432e-06
9.84575e-06
-1.77194e-06
1.06021e-05
-1.99445e-06
1.13773e-05
-2.23215e-06
1.21711e-05
-2.48531e-06
1.29835e-05
-2.75421e-06
1.38144e-05
-3.0391e-06
1.46637e-05
-3.34023e-06
1.55313e-05
-3.65783e-06
1.6417e-05
-3.9921e-06
1.73205e-05
-4.34324e-06
1.82416e-05
-4.71144e-06
1.918e-05
-5.09685e-06
2.01355e-05
-5.49961e-06
2.11076e-05
-5.91984e-06
2.2096e-05
-6.35763e-06
2.31003e-05
-6.81306e-06
2.412e-05
-7.28618e-06
2.51547e-05
-7.77701e-06
2.62037e-05
-8.28556e-06
2.72666e-05
-8.81179e-06
2.83428e-05
-9.35567e-06
2.94316e-05
-9.9171e-06
3.05323e-05
-1.0496e-05
3.16444e-05
-1.10922e-05
3.27669e-05
-1.17056e-05
3.38993e-05
-1.2336e-05
3.50406e-05
-1.29831e-05
3.61901e-05
-1.36468e-05
3.73469e-05
-1.43268e-05
3.851e-05
-1.50228e-05
3.96786e-05
-1.57345e-05
4.08517e-05
-1.64616e-05
4.20284e-05
-1.72036e-05
4.32076e-05
-1.79604e-05
4.43882e-05
-1.87314e-05
4.55692e-05
-1.95163e-05
4.67495e-05
-2.03146e-05
4.79279e-05
-2.1126e-05
4.91033e-05
-2.195e-05
5.02744e-05
-2.27862e-05
5.144e-05
-2.36342e-05
5.25987e-05
-2.44935e-05
5.37494e-05
-2.53636e-05
5.48904e-05
-2.62443e-05
5.60204e-05
-2.7135e-05
5.71379e-05
-2.80354e-05
5.82412e-05
-2.8945e-05
5.93287e-05
-2.98637e-05
6.03986e-05
-3.07909e-05
6.14489e-05
-3.17265e-05
6.24777e-05
-3.26702e-05
6.34829e-05
-3.36217e-05
6.4462e-05
-3.45809e-05
6.54127e-05
-3.55478e-05
6.63322e-05
-3.65221e-05
6.72177e-05
-3.7504e-05
6.80659e-05
-3.84935e-05
6.88734e-05
-3.94907e-05
6.96366e-05
-4.04959e-05
7.03513e-05
-4.15092e-05
7.1013e-05
-4.25311e-05
7.16169e-05
-4.35621e-05
7.21576e-05
-4.46026e-05
7.26292e-05
-4.56534e-05
7.30253e-05
-4.6715e-05
7.33389e-05
-4.77885e-05
7.35623e-05
-4.88747e-05
7.36869e-05
-4.99747e-05
7.37035e-05
-5.10895e-05
7.36021e-05
-5.22206e-05
7.33715e-05
-5.33691e-05
7.29997e-05
-5.45366e-05
7.24734e-05
-5.57246e-05
7.17784e-05
-5.69347e-05
7.08988e-05
-5.81687e-05
6.98178e-05
-5.94281e-05
6.85167e-05
-6.07149e-05
6.69757e-05
-6.20308e-05
6.51728e-05
-6.33776e-05
6.30847e-05
-6.47569e-05
6.06859e-05
-6.61703e-05
5.79492e-05
-6.76192e-05
5.48452e-05
5.13424e-05
-6.91045e-05
-4.45482e-09
2.34956e-07
-1.80034e-08
7.13919e-07
-4.09755e-08
1.20971e-06
-7.37033e-08
1.72258e-06
-1.16521e-07
2.25278e-06
-1.69766e-07
2.80052e-06
-2.33773e-07
3.36605e-06
-3.08882e-07
3.94955e-06
-3.95428e-07
4.55122e-06
-4.93748e-07
5.17123e-06
-6.04175e-07
5.80974e-06
-7.27042e-07
6.46689e-06
-8.62675e-07
7.14279e-06
-1.0114e-06
7.83755e-06
-1.17353e-06
8.55125e-06
-1.34939e-06
9.28393e-06
-1.53926e-06
1.00356e-05
-1.74346e-06
1.08063e-05
-1.96227e-06
1.15961e-05
-2.19596e-06
1.24048e-05