/*--------------------------------*- C++ -*----------------------------------*\
| =========                 |                                                 |
| \\      /  F ield         | OpenFOAM: The Open Source CFD Toolbox           |
|  \\    /   O peration     | Version:  2406                                  |
|   \\  /    A nd           | Website:  www.openfoam.com                      |
|    \\/     M anipulation  |                                                 |
\*---------------------------------------------------------------------------*/
FoamFile
{
    version     2.0;
    format      ascii;
    arch        "LSB;label=32;scalar=64";
    class       volVectorField;
    location    "6";
    object      U;
}
// * * * * * * * * * * * * * * * * * * * * * * * * * * * * * * * * * * * * * //

dimensions      [0 1 -1 0 0 0 0];

internalField   nonuniform List<vector> 
40000
(
(-3.63583e-06 0.00176943 0)
(-2.33707e-05 0.00528998 0)
(-6.86372e-05 0.00881955 0)
(-0.000139122 0.0123569 0)
(-0.000234535 0.0159008 0)
(-0.000355592 0.01945 0)
(-0.000503194 0.0230029 0)
(-0.000678176 0.0265583 0)
(-0.000881345 0.0301145 0)
(-0.00111352 0.0336702 0)
(-0.00137552 0.0372237 0)
(-0.00166819 0.0407733 0)
(-0.00199235 0.0443174 0)
(-0.00234883 0.0478543 0)
(-0.00273847 0.0513822 0)
(-0.00316212 0.0548992 0)
(-0.00362059 0.0584034 0)
(-0.00411472 0.061893 0)
(-0.00464533 0.0653661 0)
(-0.00521326 0.0688205 0)
(-0.0058193 0.0722543 0)
(-0.00646427 0.0756654 0)
(-0.00714896 0.0790517 0)
(-0.00787417 0.0824111 0)
(-0.00864066 0.0857414 0)
(-0.00944918 0.0890404 0)
(-0.0103005 0.092306 0)
(-0.0111953 0.0955358 0)
(-0.0121344 0.0987277 0)
(-0.0131183 0.101879 0)
(-0.0141479 0.104989 0)
(-0.0152236 0.108053 0)
(-0.0163462 0.11107 0)
(-0.0175162 0.114038 0)
(-0.0187342 0.116955 0)
(-0.0200007 0.119817 0)
(-0.0213163 0.122624 0)
(-0.0226814 0.125372 0)
(-0.0240964 0.128059 0)
(-0.0255618 0.130684 0)
(-0.0270779 0.133244 0)
(-0.0286451 0.135736 0)
(-0.0302637 0.138159 0)
(-0.031934 0.14051 0)
(-0.0336561 0.142788 0)
(-0.0354304 0.14499 0)
(-0.0372569 0.147115 0)
(-0.0391358 0.14916 0)
(-0.0410671 0.151123 0)
(-0.043051 0.153003 0)
(-0.0450875 0.154798 0)
(-0.0471765 0.156505 0)
(-0.0493181 0.158122 0)
(-0.051512 0.159649 0)
(-0.0537584 0.161082 0)
(-0.056057 0.162421 0)
(-0.0584077 0.163663 0)
(-0.0608103 0.164806 0)
(-0.0632647 0.165849 0)
(-0.0657707 0.166789 0)
(-0.068328 0.167624 0)
(-0.0709364 0.168353 0)
(-0.0735957 0.168972 0)
(-0.0763057 0.16948 0)
(-0.0790661 0.169874 0)
(-0.0818767 0.170151 0)
(-0.0847372 0.170308 0)
(-0.0876474 0.170343 0)
(-0.0906071 0.170252 0)
(-0.0936161 0.170031 0)
(-0.0966741 0.169677 0)
(-0.0997809 0.169185 0)
(-0.102936 0.16855 0)
(-0.10614 0.167768 0)
(-0.109392 0.166832 0)
(-0.112693 0.165738 0)
(-0.116041 0.164478 0)
(-0.119436 0.163046 0)
(-0.122879 0.161434 0)
(-0.126369 0.159633 0)
(-0.129906 0.157635 0)
(-0.133489 0.15543 0)
(-0.137118 0.153008 0)
(-0.140792 0.150357 0)
(-0.14451 0.147467 0)
(-0.148272 0.144324 0)
(-0.152076 0.140915 0)
(-0.155921 0.137225 0)
(-0.159805 0.13324 0)
(-0.163725 0.128943 0)
(-0.16768 0.124318 0)
(-0.171666 0.119348 0)
(-0.175678 0.114013 0)
(-0.179713 0.108295 0)
(-0.183765 0.102175 0)
(-0.187826 0.0956318 0)
(-0.19189 0.0886457 0)
(-0.195946 0.081196 0)
(-0.199983 0.0732623 0)
(-0.203989 0.0648244 0)
(-3.60919e-06 0.00182536 0)
(-2.32094e-05 0.005457 0)
(-6.81767e-05 0.00909777 0)
(-0.000138202 0.0127464 0)
(-0.000233003 0.0164015 0)
(-0.000353297 0.0200619 0)
(-0.000499985 0.0237259 0)
(-0.000673899 0.0273922 0)
(-0.000875849 0.0310593 0)
(-0.00110665 0.0347254 0)
(-0.00136713 0.038389 0)
(-0.00165812 0.0420485 0)
(-0.00198044 0.0457019 0)
(-0.00233493 0.0493476 0)
(-0.00272243 0.0529838 0)
(-0.00314376 0.0566084 0)
(-0.00359976 0.0602195 0)
(-0.00409125 0.0638153 0)
(-0.00461906 0.0673935 0)
(-0.005184 0.0709523 0)
(-0.00578688 0.0744894 0)
(-0.0064285 0.0780028 0)
(-0.00710965 0.0814903 0)
(-0.0078311 0.0849495 0)
(-0.00859363 0.0883784 0)
(-0.00939798 0.0917747 0)
(-0.0102449 0.095136 0)
(-0.011135 0.0984601 0)
(-0.0120692 0.101745 0)
(-0.0130479 0.104987 0)
(-0.0140719 0.108186 0)
(-0.0151419 0.111338 0)
(-0.0162583 0.11444 0)
(-0.0174218 0.117492 0)
(-0.0186329 0.12049 0)
(-0.0198922 0.123432 0)
(-0.0212 0.126316 0)
(-0.0225569 0.129139 0)
(-0.0239632 0.131899 0)
(-0.0254194 0.134594 0)
(-0.0269257 0.137222 0)
(-0.0284825 0.139779 0)
(-0.0300901 0.142266 0)
(-0.0317486 0.144678 0)
(-0.0334583 0.147014 0)
(-0.0352193 0.149271 0)
(-0.0370317 0.151449 0)
(-0.0388957 0.153544 0)
(-0.0408112 0.155555 0)
(-0.0427782 0.15748 0)
(-0.0447968 0.159317 0)
(-0.0468669 0.161063 0)
(-0.0489884 0.162718 0)
(-0.0511611 0.164279 0)
(-0.0533849 0.165745 0)
(-0.0556598 0.167113 0)
(-0.0579853 0.168382 0)
(-0.0603614 0.169549 0)
(-0.0627878 0.170614 0)
(-0.0652643 0.171574 0)
(-0.0677905 0.172426 0)
(-0.0703663 0.17317 0)
(-0.0729914 0.173802 0)
(-0.0756654 0.174321 0)
(-0.0783882 0.174723 0)
(-0.0811595 0.175007 0)
(-0.0839789 0.175169 0)
(-0.0868463 0.175207 0)
(-0.0897615 0.175118 0)
(-0.0927241 0.174896 0)
(-0.0957341 0.17454 0)
(-0.0987913 0.174045 0)
(-0.101895 0.173405 0)
(-0.105046 0.172617 0)
(-0.108244 0.171674 0)
(-0.111488 0.170571 0)
(-0.114779 0.169301 0)
(-0.118116 0.167858 0)
(-0.1215 0.166233 0)
(-0.12493 0.164419 0)
(-0.128406 0.162406 0)
(-0.131928 0.160186 0)
(-0.135495 0.157747 0)
(-0.139108 0.155078 0)
(-0.142766 0.152168 0)
(-0.146469 0.149003 0)
(-0.150215 0.14557 0)
(-0.154004 0.141855 0)
(-0.157834 0.137842 0)
(-0.161704 0.133515 0)
(-0.165612 0.128856 0)
(-0.169555 0.123848 0)
(-0.173531 0.118471 0)
(-0.177535 0.112707 0)
(-0.181564 0.106534 0)
(-0.18561 0.0999318 0)
(-0.189668 0.092879 0)
(-0.19373 0.0853538 0)
(-0.197785 0.0773343 0)
(-0.201822 0.068799 0)
(-3.58077e-06 0.00187999 0)
(-2.30373e-05 0.00562018 0)
(-6.76839e-05 0.00936962 0)
(-0.000137216 0.013127 0)
(-0.000231361 0.0168909 0)
(-0.000350836 0.02066 0)
(-0.000496539 0.0244327 0)
(-0.000669305 0.0282075 0)
(-0.000869941 0.0319829 0)
(-0.00109926 0.0357572 0)
(-0.00135809 0.0395287 0)
(-0.00164726 0.0432955 0)
(-0.00196759 0.047056 0)
(-0.00231992 0.0508083 0)
(-0.00270508 0.0545504 0)
(-0.00312389 0.0582803 0)
(-0.00357719 0.0619962 0)
(-0.00406579 0.0656958 0)
(-0.00459051 0.0693772 0)
(-0.00515216 0.0730381 0)
(-0.00575155 0.0766764 0)
(-0.00638947 0.0802898 0)
(-0.00706669 0.0838762 0)
(-0.00778398 0.0874333 0)
(-0.0085421 0.0909586 0)
(-0.00934178 0.09445 0)
(-0.0101837 0.0979049 0)
(-0.0110687 0.101321 0)
(-0.0119973 0.104696 0)
(-0.0129702 0.108028 0)
(-0.013988 0.111313 0)
(-0.0150513 0.11455 0)
(-0.0161608 0.117736 0)
(-0.0173169 0.120869 0)
(-0.0185202 0.123947 0)
(-0.0197711 0.126966 0)
(-0.0210701 0.129925 0)
(-0.0224176 0.132821 0)
(-0.023814 0.135651 0)
(-0.0252595 0.138414 0)
(-0.0267546 0.141108 0)
(-0.0282995 0.143729 0)
(-0.0298943 0.146276 0)
(-0.0315393 0.148746 0)
(-0.0332346 0.151138 0)
(-0.0349803 0.153449 0)
(-0.0367765 0.155677 0)
(-0.0386232 0.15782 0)
(-0.0405203 0.159876 0)
(-0.0424679 0.161843 0)
(-0.0444659 0.16372 0)
(-0.0465141 0.165504 0)
(-0.0486123 0.167193 0)
(-0.0507605 0.168787 0)
(-0.0529583 0.170281 0)
(-0.0552056 0.171676 0)
(-0.0575021 0.17297 0)
(-0.0598475 0.174159 0)
(-0.0622415 0.175243 0)
(-0.0646838 0.17622 0)
(-0.0671742 0.177088 0)
(-0.0697123 0.177844 0)
(-0.0722977 0.178487 0)
(-0.0749302 0.179014 0)
(-0.0776095 0.179423 0)
(-0.0803352 0.179711 0)
(-0.0831071 0.179877 0)
(-0.085925 0.179916 0)
(-0.0887885 0.179825 0)
(-0.0916974 0.179602 0)
(-0.0946517 0.179242 0)
(-0.097651 0.178742 0)
(-0.100695 0.178096 0)
(-0.103785 0.177301 0)
(-0.106919 0.17635 0)
(-0.110098 0.175237 0)
(-0.113321 0.173957 0)
(-0.11659 0.172503 0)
(-0.119904 0.170866 0)
(-0.123262 0.169039 0)
(-0.126666 0.167012 0)
(-0.130115 0.164777 0)
(-0.133609 0.162322 0)
(-0.137148 0.159637 0)
(-0.140732 0.156709 0)
(-0.144361 0.153526 0)
(-0.148035 0.150073 0)
(-0.151753 0.146337 0)
(-0.155514 0.1423 0)
(-0.159318 0.137948 0)
(-0.163163 0.133261 0)
(-0.167047 0.128222 0)
(-0.170969 0.122811 0)
(-0.174925 0.117009 0)
(-0.178912 0.110793 0)
(-0.182925 0.104142 0)
(-0.186958 0.0970341 0)
(-0.191006 0.0894461 0)
(-0.195058 0.0813549 0)
(-0.199106 0.0727375 0)
(-3.55127e-06 0.00193333 0)
(-2.28588e-05 0.00577954 0)
(-6.71723e-05 0.00963513 0)
(-0.000136193 0.0134987 0)
(-0.000229657 0.017369 0)
(-0.000348281 0.0212443 0)
(-0.000492963 0.0251233 0)
(-0.000664535 0.0290043 0)
(-0.000863805 0.0328857 0)
(-0.00109159 0.0367657 0)
(-0.0013487 0.0406426 0)
(-0.00163597 0.0445146 0)
(-0.00195423 0.0483798 0)
(-0.0023043 0.0522363 0)
(-0.00268701 0.0560821 0)
(-0.00310319 0.0599152 0)
(-0.00355364 0.0637335 0)
(-0.00403921 0.0675348 0)
(-0.00456068 0.071317 0)
(-0.00511887 0.0750778 0)
(-0.00571457 0.0788151 0)
(-0.00634856 0.0825265 0)
(-0.0070216 0.0862096 0)
(-0.00773446 0.0898622 0)
(-0.00848788 0.0934818 0)
(-0.00928256 0.0970661 0)
(-0.0101192 0.100612 0)
(-0.0109985 0.104119 0)
(-0.0119211 0.107582 0)
(-0.0128877 0.111 0)
(-0.0138988 0.11437 0)
(-0.014955 0.11769 0)
(-0.0160568 0.120958 0)
(-0.0172048 0.12417 0)
(-0.0183995 0.127324 0)
(-0.0196413 0.130418 0)
(-0.0209305 0.13345 0)
(-0.0222677 0.136416 0)
(-0.023653 0.139315 0)
(-0.0250868 0.142144 0)
(-0.0265694 0.1449 0)
(-0.0281009 0.147582 0)
(-0.0296815 0.150187 0)
(-0.0313114 0.152713 0)
(-0.0329907 0.155158 0)
(-0.0347192 0.15752 0)
(-0.0364972 0.159796 0)
(-0.0383245 0.161984 0)
(-0.0402011 0.164083 0)
(-0.0421268 0.16609 0)
(-0.0441016 0.168004 0)
(-0.0461251 0.169822 0)
(-0.0481972 0.171544 0)
(-0.0503176 0.173166 0)
(-0.0524861 0.174688 0)
(-0.0547024 0.176107 0)
(-0.0569661 0.177422 0)
(-0.0592768 0.178631 0)
(-0.0616343 0.179732 0)
(-0.0640382 0.180723 0)
(-0.066488 0.181603 0)
(-0.0689834 0.182369 0)
(-0.0715241 0.18302 0)
(-0.0741096 0.183553 0)
(-0.0767397 0.183966 0)
(-0.0794139 0.184257 0)
(-0.082132 0.184423 0)
(-0.0848936 0.184461 0)
(-0.0876986 0.184368 0)
(-0.0905466 0.18414 0)
(-0.0934376 0.183775 0)
(-0.0963713 0.183268 0)
(-0.0993477 0.182615 0)
(-0.102367 0.181811 0)
(-0.105428 0.18085 0)
(-0.108533 0.179727 0)
(-0.11168 0.178436 0)
(-0.11487 0.17697 0)
(-0.118103 0.175321 0)
(-0.121379 0.173481 0)
(-0.124699 0.171441 0)
(-0.128063 0.169192 0)
(-0.131471 0.166723 0)
(-0.134924 0.164023 0)
(-0.138421 0.161079 0)
(-0.141964 0.15788 0)
(-0.145551 0.15441 0)
(-0.149184 0.150656 0)
(-0.152861 0.1466 0)
(-0.156583 0.142227 0)
(-0.160349 0.137518 0)
(-0.164158 0.132455 0)
(-0.168009 0.127017 0)
(-0.171899 0.121184 0)
(-0.175826 0.114934 0)
(-0.179787 0.108245 0)
(-0.183777 0.101093 0)
(-0.187791 0.0934544 0)
(-0.191821 0.0853051 0)
(-0.195861 0.0766206 0)
(-3.52151e-06 0.00198541 0)
(-2.26789e-05 0.00593513 0)
(-6.66574e-05 0.0098944 0)
(-0.000135164 0.0138618 0)
(-0.000227943 0.0178359 0)
(-0.000345712 0.0218152 0)
(-0.000489369 0.025798 0)
(-0.000659743 0.0297827 0)
(-0.000857642 0.0337677 0)
(-0.00108388 0.0377512 0)
(-0.00133927 0.0417313 0)
(-0.00162463 0.0457061 0)
(-0.00194081 0.0496738 0)
(-0.0022886 0.0536323 0)
(-0.00266885 0.0575795 0)
(-0.00308236 0.0615135 0)
(-0.00352995 0.0654319 0)
(-0.00401244 0.0693326 0)
(-0.00453062 0.0732135 0)
(-0.00508528 0.077072 0)
(-0.00567722 0.0809061 0)
(-0.00630719 0.0847131 0)
(-0.00697596 0.0884909 0)
(-0.00768426 0.0922368 0)
(-0.00843282 0.0959485 0)
(-0.00922234 0.0996234 0)
(-0.0100535 0.103259 0)
(-0.0109269 0.106853 0)
(-0.0118433 0.110402 0)
(-0.0128032 0.113905 0)
(-0.0138072 0.117357 0)
(-0.0148558 0.120758 0)
(-0.0159496 0.124104 0)
(-0.0170891 0.127393 0)
(-0.0182746 0.130622 0)
(-0.0195066 0.133789 0)
(-0.0207854 0.13689 0)
(-0.0221114 0.139924 0)
(-0.0234848 0.142889 0)
(-0.0249059 0.145781 0)
(-0.026375 0.148598 0)
(-0.027892 0.151339 0)
(-0.0294572 0.153999 0)
(-0.0310706 0.156579 0)
(-0.0327323 0.159074 0)
(-0.0344421 0.161483 0)
(-0.0362002 0.163804 0)
(-0.0380062 0.166035 0)
(-0.0398601 0.168173 0)
(-0.0417618 0.170218 0)
(-0.0437109 0.172166 0)
(-0.0457072 0.174016 0)
(-0.0477505 0.175767 0)
(-0.0498403 0.177415 0)
(-0.0519764 0.178961 0)
(-0.0541583 0.180401 0)
(-0.0563856 0.181735 0)
(-0.058658 0.18296 0)
(-0.060975 0.184075 0)
(-0.0633361 0.185078 0)
(-0.0657409 0.185967 0)
(-0.068189 0.186741 0)
(-0.0706799 0.187397 0)
(-0.0732133 0.187933 0)
(-0.0757886 0.188347 0)
(-0.0784055 0.188638 0)
(-0.0810637 0.188802 0)
(-0.0837628 0.188836 0)
(-0.0865025 0.188738 0)
(-0.0892827 0.188504 0)
(-0.092103 0.188132 0)
(-0.0949635 0.187616 0)
(-0.0978639 0.186954 0)
(-0.100804 0.186139 0)
(-0.103785 0.185168 0)
(-0.106805 0.184033 0)
(-0.109866 0.18273 0)
(-0.112968 0.181251 0)
(-0.11611 0.179589 0)
(-0.119294 0.177736 0)
(-0.12252 0.175683 0)
(-0.125787 0.17342 0)
(-0.129098 0.170938 0)
(-0.132452 0.168224 0)
(-0.13585 0.165266 0)
(-0.139292 0.162053 0)
(-0.14278 0.158569 0)
(-0.146313 0.1548 0)
(-0.149892 0.150729 0)
(-0.153517 0.146339 0)
(-0.157189 0.141613 0)
(-0.160906 0.136531 0)
(-0.164669 0.131073 0)
(-0.168476 0.125217 0)
(-0.172326 0.118942 0)
(-0.176217 0.112224 0)
(-0.180145 0.105039 0)
(-0.184106 0.0973614 0)
(-0.188095 0.0891671 0)
(-0.192105 0.0804298 0)
(-3.49243e-06 0.00203624 0)
(-2.25038e-05 0.00608704 0)
(-6.61565e-05 0.0101476 0)
(-0.000134164 0.0142164 0)
(-0.000226278 0.018292 0)
(-0.000343219 0.0223728 0)
(-0.000485882 0.0264571 0)
(-0.000655096 0.0305434 0)
(-0.000851667 0.0346297 0)
(-0.0010764 0.0387143 0)
(-0.00133012 0.0427953 0)
(-0.00161365 0.0468707 0)
(-0.0019278 0.0509386 0)
(-0.00227339 0.0549968 0)
(-0.00265124 0.0590433 0)
(-0.00306216 0.0630759 0)
(-0.00350696 0.0670923 0)
(-0.00398644 0.0710903 0)
(-0.00450139 0.0750676 0)
(-0.0050526 0.0790217 0)
(-0.00564083 0.0829502 0)
(-0.00626684 0.0868508 0)
(-0.00693137 0.0907209 0)
(-0.00763514 0.0945579 0)
(-0.00837886 0.0983594 0)
(-0.00916319 0.102123 0)
(-0.00998881 0.105845 0)
(-0.0108563 0.109524 0)
(-0.0117664 0.113158 0)
(-0.0127195 0.116742 0)
(-0.0137163 0.120275 0)
(-0.0147571 0.123754 0)
(-0.0158426 0.127176 0)
(-0.0169732 0.13054 0)
(-0.0181492 0.133841 0)
(-0.0193709 0.137077 0)
(-0.0206388 0.140247 0)
(-0.0219531 0.143346 0)
(-0.023314 0.146374 0)
(-0.0247217 0.149326 0)
(-0.0261763 0.152202 0)
(-0.027678 0.154997 0)
(-0.0292267 0.157711 0)
(-0.0308225 0.16034 0)
(-0.0324653 0.162883 0)
(-0.034155 0.165337 0)
(-0.0358915 0.167701 0)
(-0.0376746 0.169971 0)
(-0.0395041 0.172146 0)
(-0.0413797 0.174225 0)
(-0.0433011 0.176204 0)
(-0.0452678 0.178083 0)
(-0.0472797 0.179859 0)
(-0.0493362 0.181531 0)
(-0.0514369 0.183097 0)
(-0.0535814 0.184556 0)
(-0.055769 0.185905 0)
(-0.0579995 0.187144 0)
(-0.0602722 0.188269 0)
(-0.0625866 0.189281 0)
(-0.0649421 0.190176 0)
(-0.0673384 0.190954 0)
(-0.0697748 0.191612 0)
(-0.0722509 0.192149 0)
(-0.0747662 0.192562 0)
(-0.0773203 0.192849 0)
(-0.0799127 0.193008 0)
(-0.0825431 0.193036 0)
(-0.0852112 0.19293 0)
(-0.0879167 0.192688 0)
(-0.0906594 0.192306 0)
(-0.0934392 0.19178 0)
(-0.096256 0.191105 0)
(-0.0991098 0.190279 0)
(-0.102001 0.189294 0)
(-0.104929 0.188147 0)
(-0.107895 0.18683 0)
(-0.110898 0.185338 0)
(-0.11394 0.183662 0)
(-0.117021 0.181795 0)
(-0.120142 0.179729 0)
(-0.123302 0.177453 0)
(-0.126504 0.174957 0)
(-0.129747 0.17223 0)
(-0.133033 0.16926 0)
(-0.136363 0.166034 0)
(-0.139738 0.162538 0)
(-0.143158 0.158757 0)
(-0.146624 0.154674 0)
(-0.150138 0.150272 0)
(-0.1537 0.145534 0)
(-0.157311 0.140439 0)
(-0.16097 0.134966 0)
(-0.164677 0.129095 0)
(-0.168433 0.122802 0)
(-0.172236 0.116064 0)
(-0.176083 0.108855 0)
(-0.179972 0.101151 0)
(-0.1839 0.0929239 0)
(-0.187861 0.0841477 0)
(-3.46505e-06 0.00208587 0)
(-2.23396e-05 0.00623539 0)
(-6.56884e-05 0.0103949 0)
(-0.000133231 0.0145628 0)
(-0.000224726 0.0187376 0)
(-0.000340895 0.0229177 0)
(-0.000482635 0.0271013 0)
(-0.000650771 0.0312868 0)
(-0.000846109 0.0354722 0)
(-0.00106946 0.0396557 0)
(-0.00132163 0.0438354 0)
(-0.00160344 0.0480093 0)
(-0.0019157 0.0521752 0)
(-0.00225924 0.0563311 0)
(-0.00263486 0.0604746 0)
(-0.00304336 0.0646037 0)
(-0.00348554 0.068716 0)
(-0.0039622 0.0728091 0)
(-0.00447412 0.0768806 0)
(-0.00502206 0.0809281 0)
(-0.00560678 0.084949 0)
(-0.00622902 0.0889409 0)
(-0.00688949 0.0929011 0)
(-0.00758891 0.0968271 0)
(-0.00832795 0.100716 0)
(-0.00910726 0.104566 0)
(-0.00992747 0.108373 0)
(-0.0107892 0.112135 0)
(-0.011693 0.11585 0)
(-0.0126394 0.119514 0)
(-0.0136289 0.123124 0)
(-0.0146621 0.126679 0)
(-0.0157392 0.130176 0)
(-0.0168607 0.13361 0)
(-0.018027 0.136981 0)
(-0.0192384 0.140285 0)
(-0.0204951 0.143519 0)
(-0.0217973 0.146682 0)
(-0.0231452 0.149769 0)
(-0.0245389 0.15278 0)
(-0.0259786 0.15571 0)
(-0.0274641 0.158559 0)
(-0.0289955 0.161322 0)
(-0.0305728 0.163999 0)
(-0.0321957 0.166586 0)
(-0.0338641 0.169082 0)
(-0.0355777 0.171485 0)
(-0.0373364 0.173791 0)
(-0.0391398 0.176 0)
(-0.0409875 0.178109 0)
(-0.0428791 0.180117 0)
(-0.0448143 0.182021 0)
(-0.0467924 0.18382 0)
(-0.0488131 0.185512 0)
(-0.0508757 0.187095 0)
(-0.0529798 0.188569 0)
(-0.0551247 0.18993 0)
(-0.0573099 0.191178 0)
(-0.0595347 0.192312 0)
(-0.0617985 0.193328 0)
(-0.0641008 0.194227 0)
(-0.066441 0.195005 0)
(-0.0688183 0.195662 0)
(-0.0712324 0.196196 0)
(-0.0736826 0.196604 0)
(-0.0761685 0.196885 0)
(-0.0786895 0.197036 0)
(-0.0812453 0.197055 0)
(-0.0838355 0.196939 0)
(-0.0864599 0.196686 0)
(-0.0891182 0.196291 0)
(-0.0918102 0.195752 0)
(-0.0945359 0.195064 0)
(-0.0972954 0.194223 0)
(-0.100089 0.193224 0)
(-0.102916 0.192061 0)
(-0.105778 0.19073 0)
(-0.108675 0.189222 0)
(-0.111607 0.187532 0)
(-0.114575 0.185651 0)
(-0.11758 0.18357 0)
(-0.120623 0.181281 0)
(-0.123704 0.178772 0)
(-0.126826 0.176033 0)
(-0.129989 0.173052 0)
(-0.133194 0.169815 0)
(-0.136443 0.166308 0)
(-0.139737 0.162517 0)
(-0.143077 0.158426 0)
(-0.146466 0.154015 0)
(-0.149904 0.149268 0)
(-0.153392 0.144165 0)
(-0.156932 0.138684 0)
(-0.160524 0.132804 0)
(-0.164168 0.126501 0)
(-0.167866 0.119751 0)
(-0.171615 0.112529 0)
(-0.175415 0.104807 0)
(-0.179263 0.0965599 0)
(-0.183156 0.0877581 0)
(-3.44036e-06 0.00213436 0)
(-2.21931e-05 0.00638037 0)
(-6.5272e-05 0.0106366 0)
(-0.000132401 0.0149014 0)
(-0.000223349 0.0191732 0)
(-0.000338838 0.0234504 0)
(-0.000479763 0.0277312 0)
(-0.000646951 0.0320138 0)
(-0.000841203 0.0362962 0)
(-0.00106333 0.0405766 0)
(-0.00131413 0.0448529 0)
(-0.00159444 0.0491231 0)
(-0.00190504 0.053385 0)
(-0.00224677 0.0576363 0)
(-0.00262041 0.0618749 0)
(-0.00302676 0.0660984 0)
(-0.00346662 0.0703044 0)
(-0.00394076 0.0744905 0)
(-0.00444994 0.0786542 0)
(-0.00499494 0.0827929 0)
(-0.00557647 0.0869041 0)
(-0.00619526 0.0909851 0)
(-0.00685202 0.0950333 0)
(-0.00754741 0.099046 0)
(-0.0082821 0.10302 0)
(-0.00905671 0.106954 0)
(-0.00987183 0.110843 0)
(-0.010728 0.114686 0)
(-0.0116259 0.11848 0)
(-0.0125658 0.122221 0)
(-0.0135484 0.125907 0)
(-0.0145739 0.129536 0)
(-0.0156428 0.133103 0)
(-0.0167555 0.136607 0)
(-0.0179121 0.140045 0)
(-0.019113 0.143413 0)
(-0.0203584 0.14671 0)
(-0.0216484 0.149932 0)
(-0.0229831 0.153077 0)
(-0.0243626 0.156142 0)
(-0.0257868 0.159125 0)
(-0.0272557 0.162023 0)
(-0.0287692 0.164834 0)
(-0.0303271 0.167555 0)
(-0.0319293 0.170183 0)
(-0.0335754 0.172718 0)
(-0.0352651 0.175156 0)
(-0.0369981 0.177496 0)
(-0.0387739 0.179735 0)
(-0.0405922 0.181871 0)
(-0.0424524 0.183903 0)
(-0.0443539 0.185829 0)
(-0.0462962 0.187647 0)
(-0.0482787 0.189356 0)
(-0.0503008 0.190953 0)
(-0.0523618 0.192438 0)
(-0.054461 0.193808 0)
(-0.0565977 0.195062 0)
(-0.0587713 0.196199 0)
(-0.060981 0.197218 0)
(-0.0632261 0.198115 0)
(-0.065506 0.198892 0)
(-0.06782 0.199544 0)
(-0.0701674 0.200071 0)
(-0.0725477 0.200472 0)
(-0.0749602 0.200743 0)
(-0.0774044 0.200883 0)
(-0.07988 0.20089 0)
(-0.0823864 0.200761 0)
(-0.0849233 0.200493 0)
(-0.0874906 0.200083 0)
(-0.090088 0.199528 0)
(-0.0927155 0.198824 0)
(-0.0953732 0.197966 0)
(-0.0980611 0.19695 0)
(-0.10078 0.195771 0)
(-0.103529 0.194423 0)
(-0.10631 0.192899 0)
(-0.109123 0.191193 0)
(-0.111969 0.189297 0)
(-0.114849 0.187201 0)
(-0.117764 0.184898 0)
(-0.120716 0.182376 0)
(-0.123704 0.179625 0)
(-0.126732 0.176633 0)
(-0.129801 0.173386 0)
(-0.132912 0.169871 0)
(-0.136068 0.166072 0)
(-0.139269 0.161974 0)
(-0.142519 0.157559 0)
(-0.145819 0.152807 0)
(-0.149171 0.1477 0)
(-0.152577 0.142216 0)
(-0.156038 0.136333 0)
(-0.159555 0.130027 0)
(-0.163131 0.123273 0)
(-0.166765 0.116046 0)
(-0.170458 0.108318 0)
(-0.174208 0.100061 0)
(-0.178013 0.0912461 0)
(-3.41946e-06 0.00218178 0)
(-2.20708e-05 0.00652218 0)
(-6.49266e-05 0.010873 0)
(-0.000131716 0.0152327 0)
(-0.000222214 0.0195995 0)
(-0.000337146 0.0239718 0)
(-0.000477406 0.0283477 0)
(-0.00064382 0.0327253 0)
(-0.000837189 0.0371028 0)
(-0.00105832 0.0414781 0)
(-0.00130801 0.045849 0)
(-0.00158709 0.0502136 0)
(-0.00189634 0.0545694 0)
(-0.00223658 0.0589143 0)
(-0.0026086 0.0632459 0)
(-0.00301318 0.0675619 0)
(-0.00345111 0.0718596 0)
(-0.00392314 0.0761367 0)
(-0.00443004 0.0803905 0)
(-0.00497253 0.0846184 0)
(-0.00555134 0.0888177 0)
(-0.00616717 0.0929858 0)
(-0.00682068 0.0971198 0)
(-0.00751254 0.101217 0)
(-0.00824337 0.105275 0)
(-0.00901375 0.10929 0)
(-0.00982427 0.113259 0)
(-0.0106754 0.117181 0)
(-0.0115677 0.121051 0)
(-0.0125017 0.124867 0)
(-0.0134776 0.128626 0)
(-0.0144959 0.132325 0)
(-0.015557 0.135961 0)
(-0.016661 0.139532 0)
(-0.0178083 0.143034 0)
(-0.0189989 0.146464 0)
(-0.0202331 0.14982 0)
(-0.021511 0.1531 0)
(-0.0228324 0.156299 0)
(-0.0241975 0.159416 0)
(-0.0256061 0.162448 0)
(-0.0270581 0.165392 0)
(-0.0285533 0.168246 0)
(-0.0300914 0.171008 0)
(-0.0316721 0.173675 0)
(-0.0332951 0.176245 0)
(-0.0349599 0.178715 0)
(-0.0366662 0.181084 0)
(-0.0384133 0.18335 0)
(-0.0402007 0.18551 0)
(-0.0420278 0.187563 0)
(-0.043894 0.189507 0)
(-0.0457986 0.191341 0)
(-0.0477409 0.193062 0)
(-0.04972 0.194669 0)
(-0.0517354 0.196161 0)
(-0.0537861 0.197536 0)
(-0.0558715 0.198793 0)
(-0.0579906 0.19993 0)
(-0.0601427 0.200947 0)
(-0.0623271 0.20184 0)
(-0.0645428 0.20261 0)
(-0.0667892 0.203255 0)
(-0.0690656 0.203772 0)
(-0.0713712 0.204161 0)
(-0.0737055 0.204419 0)
(-0.0760677 0.204545 0)
(-0.0784575 0.204536 0)
(-0.0808744 0.204391 0)
(-0.083318 0.204105 0)
(-0.085788 0.203678 0)
(-0.0882842 0.203104 0)
(-0.0908067 0.202381 0)
(-0.0933554 0.201504 0)
(-0.0959305 0.200469 0)
(-0.0985324 0.199271 0)
(-0.101162 0.197905 0)
(-0.103818 0.196363 0)
(-0.106504 0.194639 0)
(-0.109219 0.192726 0)
(-0.111965 0.190615 0)
(-0.114742 0.188297 0)
(-0.117553 0.185762 0)
(-0.120399 0.182999 0)
(-0.123281 0.179996 0)
(-0.126203 0.176741 0)
(-0.129165 0.173218 0)
(-0.13217 0.169414 0)
(-0.13522 0.165312 0)
(-0.138318 0.160894 0)
(-0.141467 0.156141 0)
(-0.144669 0.151034 0)
(-0.147926 0.145552 0)
(-0.151242 0.139671 0)
(-0.154618 0.133369 0)
(-0.158056 0.126619 0)
(-0.161559 0.119395 0)
(-0.165127 0.11167 0)
(-0.168762 0.103414 0)
(-0.172462 0.094598 0)
(-3.40332e-06 0.00222821 0)
(-2.19793e-05 0.00666104 0)
(-6.46718e-05 0.0111046 0)
(-0.000131214 0.0155572 0)
(-0.000221387 0.0200171 0)
(-0.000335919 0.0244826 0)
(-0.000475704 0.0289518 0)
(-0.000641568 0.0334227 0)
(-0.000834311 0.0378933 0)
(-0.00105474 0.0423616 0)
(-0.00130365 0.0468253 0)
(-0.00158185 0.0512823 0)
(-0.00189014 0.0557303 0)
(-0.00222932 0.0601669 0)
(-0.00260016 0.0645897 0)
(-0.00300346 0.0689961 0)
(-0.00343996 0.0733837 0)
(-0.00391043 0.0777498 0)
(-0.00441559 0.0820918 0)
(-0.00495617 0.0864069 0)
(-0.00553286 0.0906924 0)
(-0.00614634 0.0949455 0)
(-0.00679725 0.0991632 0)
(-0.00748621 0.103343 0)
(-0.00821383 0.107481 0)
(-0.00898064 0.111576 0)
(-0.00978719 0.115623 0)
(-0.010634 0.119621 0)
(-0.0115214 0.123565 0)
(-0.0124499 0.127454 0)
(-0.0134198 0.131283 0)
(-0.0144315 0.13505 0)
(-0.0154852 0.138753 0)
(-0.0165811 0.142387 0)
(-0.0177194 0.14595 0)
(-0.0189002 0.14944 0)
(-0.0201236 0.152852 0)
(-0.0213895 0.156185 0)
(-0.0226979 0.159436 0)
(-0.0240487 0.162602 0)
(-0.0254417 0.16568 0)
(-0.0268766 0.168667 0)
(-0.0283533 0.171561 0)
(-0.0298712 0.174361 0)
(-0.0314301 0.177062 0)
(-0.0330294 0.179663 0)
(-0.0346686 0.182162 0)
(-0.0363472 0.184557 0)
(-0.0380645 0.186846 0)
(-0.0398199 0.189026 0)
(-0.0416126 0.191096 0)
(-0.0434419 0.193055 0)
(-0.045307 0.1949 0)
(-0.047207 0.19663 0)
(-0.0491412 0.198243 0)
(-0.0511086 0.199739 0)
(-0.0531083 0.201115 0)
(-0.0551394 0.20237 0)
(-0.0572011 0.203504 0)
(-0.0592924 0.204514 0)
(-0.0614124 0.2054 0)
(-0.0635603 0.206159 0)
(-0.0657352 0.206792 0)
(-0.0679363 0.207296 0)
(-0.0701629 0.207669 0)
(-0.0724141 0.207911 0)
(-0.0746895 0.208019 0)
(-0.0769883 0.207992 0)
(-0.0793101 0.207826 0)
(-0.0816546 0.20752 0)
(-0.0840213 0.207071 0)
(-0.0864101 0.206476 0)
(-0.0888209 0.205731 0)
(-0.0912538 0.204833 0)
(-0.0937091 0.203777 0)
(-0.096187 0.202558 0)
(-0.098688 0.20117 0)
(-0.101213 0.199609 0)
(-0.103763 0.197866 0)
(-0.106338 0.195935 0)
(-0.10894 0.193807 0)
(-0.111571 0.191474 0)
(-0.114232 0.188925 0)
(-0.116925 0.18615 0)
(-0.119652 0.183137 0)
(-0.122415 0.179873 0)
(-0.125217 0.176345 0)
(-0.128061 0.172536 0)
(-0.130948 0.168432 0)
(-0.133883 0.164013 0)
(-0.136869 0.159263 0)
(-0.139907 0.15416 0)
(-0.143003 0.148684 0)
(-0.146159 0.142811 0)
(-0.149379 0.136518 0)
(-0.152665 0.129778 0)
(-0.156021 0.122566 0)
(-0.159449 0.114852 0)
(-0.162952 0.106608 0)
(-0.166529 0.0978016 0)
(-3.39305e-06 0.00227374 0)
(-2.19256e-05 0.00679723 0)
(-6.45276e-05 0.0113317 0)
(-0.000130935 0.0158755 0)
(-0.000220935 0.0204268 0)
(-0.000335259 0.0249838 0)
(-0.000474801 0.0295445 0)
(-0.000640388 0.034107 0)
(-0.000832818 0.0386691 0)
(-0.00105289 0.0432287 0)
(-0.00130141 0.0477835 0)
(-0.00157918 0.0523313 0)
(-0.00188698 0.0568697 0)
(-0.00222561 0.0613963 0)
(-0.00259584 0.0659084 0)
(-0.00299843 0.0704036 0)
(-0.00343414 0.0748793 0)
(-0.00390369 0.0793326 0)
(-0.00440781 0.0837609 0)
(-0.00494719 0.0881613 0)
(-0.0055225 0.092531 0)
(-0.0061344 0.0968671 0)
(-0.00678349 0.101167 0)
(-0.00747037 0.105426 0)
(-0.00819558 0.109644 0)
(-0.00895966 0.113815 0)
(-0.00976307 0.117938 0)
(-0.0106063 0.12201 0)
(-0.0114896 0.126026 0)
(-0.0124135 0.129984 0)
(-0.0133782 0.133881 0)
(-0.014384 0.137714 0)
(-0.0154311 0.14148 0)
(-0.0165195 0.145175 0)
(-0.0176495 0.148797 0)
(-0.0188211 0.152343 0)
(-0.0200341 0.155809 0)
(-0.0212885 0.159193 0)
(-0.0225843 0.162492 0)
(-0.0239211 0.165702 0)
(-0.0252986 0.168823 0)
(-0.0267166 0.17185 0)
(-0.0281747 0.174781 0)
(-0.0296724 0.177614 0)
(-0.0312091 0.180346 0)
(-0.0327843 0.182975 0)
(-0.0343974 0.1855 0)
(-0.0360476 0.187916 0)
(-0.0377343 0.190224 0)
(-0.0394566 0.19242 0)
(-0.0412137 0.194504 0)
(-0.0430047 0.196472 0)
(-0.0448287 0.198325 0)
(-0.0466847 0.200059 0)
(-0.0485719 0.201675 0)
(-0.0504891 0.20317 0)
(-0.0524353 0.204543 0)
(-0.0544097 0.205793 0)
(-0.0564111 0.206918 0)
(-0.0584385 0.207918 0)
(-0.0604909 0.208792 0)
(-0.0625674 0.209538 0)
(-0.064667 0.210154 0)
(-0.0667888 0.210641 0)
(-0.068932 0.210995 0)
(-0.0710957 0.211217 0)
(-0.0732794 0.211303 0)
(-0.0754822 0.211253 0)
(-0.0777037 0.211065 0)
(-0.0799435 0.210735 0)
(-0.0822011 0.210262 0)
(-0.0844765 0.209642 0)
(-0.0867694 0.208873 0)
(-0.0890801 0.20795 0)
(-0.0914086 0.206869 0)
(-0.0937554 0.205627 0)
(-0.0961211 0.204217 0)
(-0.0985065 0.202633 0)
(-0.100912 0.20087 0)
(-0.10334 0.198919 0)
(-0.105791 0.196774 0)
(-0.108267 0.194424 0)
(-0.110769 0.191861 0)
(-0.1133 0.189074 0)
(-0.115861 0.186051 0)
(-0.118457 0.182779 0)
(-0.121089 0.179245 0)
(-0.12376 0.175433 0)
(-0.126474 0.171328 0)
(-0.129234 0.166912 0)
(-0.132044 0.162167 0)
(-0.134908 0.157071 0)
(-0.137829 0.151605 0)
(-0.140813 0.145745 0)
(-0.143863 0.139466 0)
(-0.146983 0.132744 0)
(-0.150178 0.12555 0)
(-0.15345 0.117856 0)
(-0.156805 0.109632 0)
(-0.160244 0.100846 0)
(-3.38973e-06 0.00231847 0)
(-2.19165e-05 0.00693106 0)
(-6.45142e-05 0.011555 0)
(-0.000130921 0.0161884 0)
(-0.000220927 0.0208296 0)
(-0.000335268 0.0254765 0)
(-0.000474841 0.0301273 0)
(-0.000640473 0.0347798 0)
(-0.000832961 0.0394318 0)
(-0.0010531 0.0440812 0)
(-0.0013017 0.0487256 0)
(-0.00157955 0.0533627 0)
(-0.00188742 0.0579899 0)
(-0.00222611 0.0626048 0)
(-0.00259637 0.0672048 0)
(-0.00299896 0.0717871 0)
(-0.00343461 0.0763491 0)
(-0.00390403 0.0808879 0)
(-0.00440793 0.0854007 0)
(-0.00494696 0.0898846 0)
(-0.00552179 0.0943367 0)
(-0.00613301 0.0987538 0)
(-0.00678122 0.103133 0)
(-0.00746697 0.107471 0)
(-0.00819077 0.111765 0)
(-0.00895309 0.116012 0)
(-0.00975436 0.120208 0)
(-0.010595 0.124351 0)
(-0.0114753 0.128437 0)
(-0.0123955 0.132462 0)
(-0.013356 0.136425 0)
(-0.0143568 0.14032 0)
(-0.0153982 0.144147 0)
(-0.0164801 0.1479 0)
(-0.0176026 0.151578 0)
(-0.0187656 0.155176 0)
(-0.019969 0.158693 0)
(-0.0212127 0.162124 0)
(-0.0224963 0.165468 0)
(-0.0238195 0.168721 0)
(-0.0251821 0.17188 0)
(-0.0265834 0.174943 0)
(-0.0280231 0.177907 0)
(-0.0295005 0.18077 0)
(-0.031015 0.18353 0)
(-0.0325659 0.186183 0)
(-0.0341524 0.188728 0)
(-0.0357738 0.191163 0)
(-0.0374291 0.193485 0)
(-0.0391174 0.195693 0)
(-0.0408378 0.197786 0)
(-0.0425893 0.19976 0)
(-0.0443708 0.201616 0)
(-0.0461812 0.203351 0)
(-0.0480195 0.204964 0)
(-0.0498845 0.206454 0)
(-0.0517751 0.20782 0)
(-0.0536901 0.20906 0)
(-0.0556285 0.210173 0)
(-0.057589 0.211159 0)
(-0.0595707 0.212017 0)
(-0.0615724 0.212744 0)
(-0.0635931 0.213341 0)
(-0.0656317 0.213806 0)
(-0.0676875 0.214137 0)
(-0.0697594 0.214335 0)
(-0.0718468 0.214396 0)
(-0.0739488 0.21432 0)
(-0.076065 0.214104 0)
(-0.0781948 0.213747 0)
(-0.0803378 0.213246 0)
(-0.0824939 0.212599 0)
(-0.084663 0.211802 0)
(-0.0868451 0.210852 0)
(-0.0890405 0.209745 0)
(-0.0912495 0.208476 0)
(-0.0934729 0.207041 0)
(-0.0957115 0.205434 0)
(-0.0979663 0.203648 0)
(-0.100239 0.201676 0)
(-0.10253 0.199512 0)
(-0.104842 0.197145 0)
(-0.107177 0.194567 0)
(-0.109537 0.191767 0)
(-0.111925 0.188733 0)
(-0.114343 0.185453 0)
(-0.116795 0.181914 0)
(-0.119284 0.178101 0)
(-0.121814 0.173997 0)
(-0.124389 0.169585 0)
(-0.127013 0.164847 0)
(-0.129691 0.159762 0)
(-0.132427 0.15431 0)
(-0.135226 0.148466 0)
(-0.138093 0.142207 0)
(-0.141034 0.135507 0)
(-0.144054 0.128339 0)
(-0.147157 0.120672 0)
(-0.150349 0.112477 0)
(-0.153633 0.103722 0)
(-3.39442e-06 0.00236251 0)
(-2.19591e-05 0.00706284 0)
(-6.46523e-05 0.0117748 0)