/*--------------------------------*- C++ -*----------------------------------*\
| =========                 |                                                 |
| \\      /  F ield         | OpenFOAM: The Open Source CFD Toolbox           |
|  \\    /   O peration     | Version:  2406                                  |
|   \\  /    A nd           | Website:  www.openfoam.com                      |
|    \\/     M anipulation  |                                                 |
\*---------------------------------------------------------------------------*/
FoamFile
{
    version     2.0;
    format      ascii;
    arch        "LSB;label=32;scalar=64";
    class       volScalarField;
    location    "20";
    object      p;
}
// * * * * * * * * * * * * * * * * * * * * * * * * * * * * * * * * * * * * * //

dimensions      [0 2 -2 0 0 0 0];

internalField   nonuniform List<scalar> 
40000
(
-6.61092e-09
1.00303e-05
1.74892e-05
2.18388e-05
2.35662e-05
2.2543e-05
1.83816e-05
1.06664e-05
-1.03958e-06
-1.72165e-05
-3.83902e-05
-6.51283e-05
-9.80378e-05
-0.000137762
-0.00018498
-0.000240402
-0.000304769
-0.000378855
-0.000463458
-0.000559406
-0.000667558
-0.000788799
-0.000924046
-0.00107425
-0.0012404
-0.00142353
-0.0016247
-0.00184503
-0.00208571
-0.00234794
-0.00263304
-0.00294234
-0.00327727
-0.00363932
-0.00403004
-0.00445105
-0.00490404
-0.00539074
-0.00591295
-0.00647248
-0.00707119
-0.00771093
-0.00839354
-0.00912083
-0.00989455
-0.0107164
-0.0115879
-0.0125104
-0.0134852
-0.0145133
-0.0155955
-0.0167322
-0.0179237
-0.0191697
-0.0204698
-0.021823
-0.023228
-0.0246831
-0.0261861
-0.0277345
-0.0293254
-0.0309555
-0.0326211
-0.0343185
-0.0360435
-0.0377918
-0.0395591
-0.041341
-0.0431333
-0.0449316
-0.046732
-0.0485305
-0.0503237
-0.0521081
-0.0538809
-0.0556392
-0.0573808
-0.0591033
-0.0608049
-0.0624838
-0.0641383
-0.0657666
-0.0673671
-0.068938
-0.0704773
-0.0719827
-0.0734516
-0.0748812
-0.0762681
-0.0776087
-0.0788988
-0.0801338
-0.0813088
-0.0824184
-0.0834568
-0.0844179
-0.0852956
-0.086083
-0.0867736
-0.0873604
-0.00091641
-0.000901568
-0.000889646
-0.000881299
-0.000875747
-0.000873057
-0.000873642
-0.00087793
-0.000886365
-0.000899429
-0.000917653
-0.000941609
-0.00097191
-0.0010092
-0.00105417
-0.00110754
-0.00117004
-0.00124245
-0.00132559
-0.00142027
-0.00152736
-0.00164775
-0.00178235
-0.0019321
-0.002098
-0.00228106
-0.00248235
-0.00270297
-0.00294407
-0.00320688
-0.00349267
-0.00380276
-0.00413855
-0.00450151
-0.00489316
-0.0053151
-0.00576897
-0.00625649
-0.00677942
-0.00733954
-0.00793866
-0.00857862
-0.00926122
-0.00998824
-0.0107614
-0.0115823
-0.0124525
-0.0133734
-0.0143461
-0.0153717
-0.0164509
-0.0175841
-0.0187715
-0.020013
-0.021308
-0.0226556
-0.0240545
-0.0255029
-0.0269988
-0.0285396
-0.0301225
-0.0317441
-0.0334011
-0.0350895
-0.0368053
-0.0385444
-0.0403025
-0.0420753
-0.0438586
-0.0456483
-0.0474403
-0.049231
-0.0510169
-0.0527946
-0.0545614
-0.0563145
-0.0580516
-0.0597705
-0.0614693
-0.0631462
-0.0647995
-0.0664276
-0.0680286
-0.0696008
-0.071142
-0.07265
-0.0741222
-0.0755556
-0.0769468
-0.078292
-0.079587
-0.0808272
-0.0820075
-0.0831225
-0.0841663
-0.0851327
-0.0860154
-0.0868077
-0.0875028
-0.0880936
-0.00176275
-0.00174341
-0.00172729
-0.00171515
-0.00170594
-0.00169967
-0.00169677
-0.0016977
-0.00170288
-0.00171281
-0.00172802
-0.00174909
-0.00177663
-0.0018113
-0.00185378
-0.00190481
-0.00196511
-0.00203549
-0.00211674
-0.00220969
-0.00231522
-0.0024342
-0.00256755
-0.00271622
-0.00288118
-0.00306345
-0.00326407
-0.00348416
-0.00372484
-0.00398731
-0.00427282
-0.00458269
-0.00491829
-0.00528104
-0.00567246
-0.0060941
-0.00654758
-0.00703458
-0.00755682
-0.00811606
-0.00871409
-0.00935269
-0.0100336
-0.0107587
-0.0115295
-0.0123477
-0.0132148
-0.0141321
-0.0151009
-0.016122
-0.0171963
-0.0183241
-0.0195056
-0.0207407
-0.0220288
-0.023369
-0.0247601
-0.0262003
-0.0276876
-0.0292195
-0.0307931
-0.0324053
-0.0340526
-0.0357313
-0.0374375
-0.0391669
-0.0409156
-0.0426791
-0.0444536
-0.0462347
-0.0480188
-0.0498021
-0.0515811
-0.0533527
-0.055114
-0.0568625
-0.0585957
-0.0603115
-0.062008
-0.0636834
-0.065336
-0.066964
-0.0685658
-0.0701393
-0.0716826
-0.0731932
-0.0746685
-0.0761055
-0.0775006
-0.0788501
-0.0801498
-0.0813947
-0.0825799
-0.0836998
-0.0847485
-0.0857198
-0.0866071
-0.0874038
-0.0881029
-0.0886975
-0.00253836
-0.00251485
-0.0024948
-0.0024791
-0.00246642
-0.00245673
-0.00245048
-0.00244812
-0.00245009
-0.00245689
-0.00246905
-0.00248715
-0.00251182
-0.0025437
-0.00258349
-0.00263191
-0.00268973
-0.00275772
-0.00283669
-0.00292748
-0.00303096
-0.00314801
-0.00327955
-0.00342651
-0.00358988
-0.00377065
-0.00396988
-0.00418864
-0.00442806
-0.00468932
-0.00497365
-0.00528234
-0.00561673
-0.00597822
-0.0063683
-0.00678848
-0.00724036
-0.00772559
-0.00824584
-0.00880285
-0.00939836
-0.0100341
-0.0107119
-0.0114334
-0.0122003
-0.0130142
-0.0138765
-0.0147885
-0.0157516
-0.0167665
-0.0178341
-0.0189547
-0.0201286
-0.0213556
-0.0226352
-0.0239665
-0.0253483
-0.0267789
-0.0282563
-0.0297781
-0.0313414
-0.0329433
-0.0345802
-0.0362486
-0.0379445
-0.039664
-0.041403
-0.0431573
-0.0449229
-0.0466957
-0.0484721
-0.0502483
-0.0520209
-0.0537869
-0.0555433
-0.0572876
-0.0590174
-0.0607306
-0.0624253
-0.0640996
-0.0657518
-0.0673801
-0.0689828
-0.0705579
-0.0721032
-0.0736164
-0.0750947
-0.076535
-0.0779339
-0.0792875
-0.0805913
-0.0818407
-0.0830304
-0.0841548
-0.085208
-0.0861837
-0.0870752
-0.0878759
-0.0885787
-0.0891766
-0.00324352
-0.00321618
-0.00319251
-0.00317348
-0.00315755
-0.00314461
-0.00313514
-0.00312959
-0.00312843
-0.00313213
-0.00314123
-0.00315631
-0.003178
-0.00320696
-0.00324387
-0.00328947
-0.00334453
-0.00340981
-0.00348615
-0.00357437
-0.00367535
-0.00378997
-0.00391915
-0.00406383
-0.00422497
-0.00440358
-0.0046007
-0.00481738
-0.00505475
-0.00531396
-0.00559623
-0.00590282
-0.00623503
-0.00659427
-0.00698196
-0.0073996
-0.00784875
-0.00833101
-0.00884805
-0.00940155
-0.00999323
-0.0106248
-0.011298
-0.0120145
-0.012776
-0.013584
-0.0144399
-0.0153452
-0.0163009
-0.017308
-0.0183673
-0.0194792
-0.0206439
-0.0218613
-0.0231309
-0.0244519
-0.025823
-0.0272427
-0.028709
-0.0302196
-0.0317717
-0.0333623
-0.0349882
-0.0366457
-0.038331
-0.0400402
-0.0417693
-0.0435143
-0.0452711
-0.0470359
-0.0488048
-0.0505742
-0.0523409
-0.0541016
-0.0558536
-0.0575943
-0.0593212
-0.0610322
-0.0627255
-0.0643991
-0.0660512
-0.0676801
-0.0692839
-0.0708606
-0.072408
-0.0739237
-0.0754049
-0.0768485
-0.078251
-0.0796083
-0.0809161
-0.0821695
-0.0833634
-0.084492
-0.0855493
-0.086529
-0.0874245
-0.0882289
-0.0889351
-0.089536
-0.00387934
-0.00384851
-0.00382153
-0.00379943
-0.00378045
-0.00376445
-0.00375192
-0.00374332
-0.00373911
-0.00373976
-0.00374581
-0.00375785
-0.0037765
-0.00380242
-0.00383631
-0.0038789
-0.00393094
-0.00399324
-0.00406661
-0.00415188
-0.00424994
-0.00436167
-0.00448798
-0.00462982
-0.00478814
-0.00496395
-0.00515827
-0.00537215
-0.00560671
-0.00586307
-0.00614244
-0.00644604
-0.00677518
-0.00713119
-0.0075155
-0.00792956
-0.00837491
-0.0088531
-0.00936577
-0.00991456
-0.0105012
-0.0111273
-0.0117946
-0.0125048
-0.0132594
-0.0140601
-0.0149083
-0.0158053
-0.0167522
-0.01775
-0.0187996
-0.0199012
-0.0210553
-0.0222617
-0.0235199
-0.0248292
-0.0261884
-0.0275961
-0.0290502
-0.0305486
-0.0320885
-0.0336672
-0.0352813
-0.0369273
-0.0386016
-0.0403002
-0.0420193
-0.0437549
-0.045503
-0.0472598
-0.0490214
-0.0507844
-0.0525454
-0.0543014
-0.0560494
-0.0577868
-0.0595112
-0.0612206
-0.0629128
-0.064586
-0.0662384
-0.067868
-0.0694731
-0.0710516
-0.0726012
-0.0741195
-0.0756036
-0.0770503
-0.0784561
-0.079817
-0.0811285
-0.0823858
-0.0835835
-0.0847161
-0.0857773
-0.0867608
-0.0876599
-0.0884676
-0.089177
-0.0897807
-0.00444762
-0.00441365
-0.00438366
-0.00435875
-0.00433695
-0.0043181
-0.00430268
-0.00429117
-0.00428401
-0.00428169
-0.00428473
-0.00429373
-0.0043093
-0.0043321
-0.00436284
-0.00440224
-0.00445107
-0.00451013
-0.00458023
-0.00466222
-0.00475696
-0.00486536
-0.00498833
-0.0051268
-0.00528174
-0.00545413
-0.00564501
-0.00585541
-0.00608642
-0.00633916
-0.00661482
-0.0069146
-0.00723977
-0.00759166
-0.00797163
-0.00838114
-0.00882165
-0.00929472
-0.00980192
-0.0103449
-0.0109253
-0.0115447
-0.0122049
-0.0129075
-0.0136541
-0.0144461
-0.0152852
-0.0161725
-0.0171092
-0.0180964
-0.0191348
-0.0202249
-0.021367
-0.022561
-0.0238066
-0.0251029
-0.0264491
-0.0278435
-0.0292844
-0.0307696
-0.0322966
-0.0338625
-0.0354642
-0.0370982
-0.038761
-0.0404488
-0.0421577
-0.0438837
-0.0456231
-0.0473719
-0.0491265
-0.0508833
-0.052639
-0.0543904
-0.0561348
-0.0578694
-0.0595918
-0.0612998
-0.0629913
-0.0646645
-0.0663174
-0.0679482
-0.0695548
-0.0711352
-0.0726871
-0.074208
-0.0756949
-0.0771448
-0.0785539
-0.0799182
-0.0812333
-0.0824942
-0.0836956
-0.0848319
-0.0858967
-0.0868838
-0.0877863
-0.0885973
-0.0893095
-0.0899158
-0.0049507
-0.00491395
-0.00488126
-0.0048538
-0.00482943
-0.00480793
-0.00478981
-0.00477554
-0.00476557
-0.00476036
-0.00476045
-0.00476643
-0.0047789
-0.00479854
-0.00482603
-0.00486211
-0.00490755
-0.00496314
-0.00502971
-0.0051081
-0.00519918
-0.00530385
-0.00542302
-0.00555764
-0.00570866
-0.00587707
-0.00606388
-0.00627013
-0.0064969
-0.0067453
-0.00701647
-0.00731162
-0.00763199
-0.00797887
-0.00835361
-0.0087576
-0.00919232
-0.00965925
-0.0101599
-0.010696
-0.0112691
-0.0118807
-0.0125326
-0.0132264
-0.0139637
-0.0147459
-0.0155745
-0.0164509
-0.0173762
-0.0183514
-0.0193774
-0.0204546
-0.0215834
-0.0227638
-0.0239954
-0.0252777
-0.0266096
-0.0279898
-0.0294164
-0.0308876
-0.0324007
-0.0339531
-0.0355417
-0.0371632
-0.038814
-0.0404906
-0.0421889
-0.0439054
-0.0456359
-0.0473769
-0.0491245
-0.0508753
-0.0526259
-0.0543731
-0.0561141
-0.0578462
-0.059567
-0.061274
-0.0629653
-0.0646388
-0.0662925
-0.0679246
-0.069533
-0.0711155
-0.0726699
-0.0741935
-0.0756834
-0.0771363
-0.0785487
-0.0799164
-0.081235
-0.0824995
-0.0837045
-0.0848442
-0.0859126
-0.0869031
-0.0878089
-0.0886229
-0.089338
-0.0899467
-0.00539142
-0.00535222
-0.00531715
-0.00528739
-0.00526068
-0.00523676
-0.00521613
-0.00519928
-0.00518662
-0.00517864
-0.00517586
-0.00517886
-0.00518825
-0.00520469
-0.00522887
-0.00526154
-0.00530344
-0.00535538
-0.00541818
-0.00549269
-0.00557978
-0.00568036
-0.00579533
-0.00592563
-0.00607224
-0.00623612
-0.00641828
-0.00661976
-0.00684163
-0.00708497
-0.00735093
-0.00764067
-0.00795543
-0.00829646
-0.00866508
-0.00906267
-0.00949065
-0.00995048
-0.0104437
-0.0109718
-0.0115365
-0.0121393
-0.0127818
-0.0134657
-0.0141924
-0.0149636
-0.0157807
-0.0166449
-0.0175575
-0.0185196
-0.0195318
-0.0205949
-0.0217092
-0.0228748
-0.0240913
-0.0253583
-0.0266749
-0.0280397
-0.0294512
-0.0309073
-0.0324057
-0.0339438
-0.0355186
-0.037127
-0.0387654
-0.0404303
-0.0421179
-0.0438244
-0.0455461
-0.0472791
-0.0490198
-0.0507647
-0.0525103
-0.0542536
-0.0559916
-0.0577216
-0.0594409
-0.0611473
-0.0628387
-0.0645128
-0.0661678
-0.0678015
-0.0694119
-0.0709968
-0.0725538
-0.0740803
-0.0755732
-0.0770294
-0.0784451
-0.0798163
-0.0811383
-0.0824063
-0.0836149
-0.0847581
-0.0858299
-0.0868237
-0.0877327
-0.0885497
-0.0892675
-0.0898786
-0.00577293
-0.00573162
-0.00569446
-0.00566268
-0.00563387
-0.00560775
-0.00558481
-0.00556554
-0.00555036
-0.00553973
-0.00553418
-0.00553426
-0.0055406
-0.00555385
-0.00557469
-0.00560385
-0.00564211
-0.00569024
-0.00574908
-0.00581947
-0.00590229
-0.00599844
-0.00610884
-0.00623442
-0.00637614
-0.00653498
-0.00671195
-0.00690807
-0.0071244
-0.00736202
-0.00762205
-0.00790565
-0.00821401
-0.00854839
-0.00891006
-0.00930037
-0.00972071
-0.0101725
-0.0106573
-0.0111765
-0.0117318
-0.0123247
-0.0129567
-0.0136296
-0.0143448
-0.0151038
-0.0159081
-0.0167591
-0.0176578
-0.0186055
-0.0196028
-0.0206506
-0.0217492
-0.0228988
-0.0240991
-0.0253497
-0.0266498
-0.0279983
-0.0293935
-0.0308337
-0.0323165
-0.0338395
-0.0353999
-0.0369944
-0.0386198
-0.0402726
-0.041949
-0.0436454
-0.045358
-0.047083
-0.0488167
-0.0505558
-0.0522966
-0.0540361
-0.0557713
-0.0574994
-0.0592177
-0.0609238
-0.0626155
-0.0642907
-0.0659471
-0.0675828
-0.0691956
-0.0707832
-0.0723431
-0.0738726
-0.0753689
-0.0768284
-0.0782476
-0.0796223
-0.0809479
-0.0822195
-0.0834316
-0.0845784
-0.0856536
-0.0866508
-0.0875629
-0.0883829
-0.0891033
-0.0897169
-0.00609865
-0.00605556
-0.00601661
-0.00598306
-0.00595239
-0.00592428
-0.00589924
-0.00587774
-0.00586019
-0.00584706
-0.00583884
-0.0058361
-0.00583945
-0.00584952
-0.00586701
-0.00589263
-0.00592715
-0.00597136
-0.00602607
-0.00609214
-0.00617045
-0.00626188
-0.00636736
-0.00648783
-0.00662424
-0.00677758
-0.00694884
-0.00713905
-0.00734924
-0.0075805
-0.00783393
-0.00811067
-0.0084119
-0.00873884
-0.00909275
-0.00947495
-0.00988679
-0.0103297
-0.0108051
-0.0113145
-0.0118594
-0.0124413
-0.013062
-0.0137228
-0.0144253
-0.0151711
-0.0159616
-0.0167981
-0.0176818
-0.0186139
-0.0195953
-0.0206266
-0.0217084
-0.0228407
-0.0240237
-0.0252568
-0.0265394
-0.0278704
-0.0292484
-0.0306717
-0.032138
-0.0336451
-0.0351902
-0.0367703
-0.0383821
-0.0400222
-0.041687
-0.0433729
-0.0450761
-0.0467929
-0.0485196
-0.0502528
-0.0519889
-0.0537248
-0.0554573
-0.0571837
-0.0589012
-0.0606074
-0.0622999
-0.0639764
-0.0656347
-0.0672727
-0.0688882
-0.0704787
-0.0720418
-0.0735748
-0.0750746
-0.0765378
-0.0779607
-0.0793391
-0.0806684
-0.0819437
-0.0831595
-0.0843099
-0.0853887
-0.0863892
-0.0873045
-0.0881275
-0.0888508
-0.0894667
-0.00637217
-0.0063276
-0.00628715
-0.00625208
-0.00621978
-0.00618991
-0.00616298
-0.00613944
-0.00611969
-0.0061042
-0.00609344
-0.00608798
-0.00608841
-0.00609536
-0.00610951
-0.00613158
-0.00616231
-0.00620251
-0.00625297
-0.00631455
-0.00638813
-0.00647459
-0.00657487
-0.00668988
-0.0068206
-0.006968
-0.00713307
-0.00731684
-0.00752034
-0.00774464
-0.00799083
-0.00826004
-0.00855342
-0.00887218
-0.00921755
-0.00959082
-0.00999332
-0.0104264
-0.0108916
-0.0113902
-0.0119238
-0.0124939
-0.0131021
-0.0137498
-0.0144387
-0.0151702
-0.0159458
-0.0167668
-0.0176344
-0.0185499
-0.0195141
-0.0205278
-0.0215916
-0.0227057
-0.0238701
-0.0250847
-0.0263486
-0.0276611
-0.0290209
-0.0304262
-0.0318752
-0.0333655
-0.0348945
-0.0364593
-0.0380569
-0.0396837
-0.0413364
-0.0430114
-0.0447049
-0.0464132
-0.0481327
-0.0498599
-0.0515913
-0.0533236
-0.0550537
-0.0567786
-0.0584956
-0.060202
-0.0618956
-0.0635738
-0.0652343
-0.0668751
-0.0684936
-0.0700875
-0.0716543
-0.073191
-0.0746946
-0.0761618
-0.0775886
-0.078971
-0.0803044
-0.0815836
-0.0828033
-0.0839575
-0.08504
-0.086044
-0.0869627
-0.0877888
-0.0885149
-0.0891333
-0.00659717
-0.00655142
-0.00650974
-0.00647339
-0.00643969
-0.00640828
-0.00637966
-0.00635427
-0.0063325
-0.0063148
-0.00630165
-0.00629359
-0.00629119
-0.00629509
-0.00630594
-0.00632446
-0.00635139
-0.00638751
-0.00643364
-0.0064906
-0.00655928
-0.00664056
-0.00673536
-0.00684463
-0.00696931
-0.00711038
-0.00726883
-0.00744568
-0.00764196
-0.00785873
-0.00809708
-0.0083581
-0.00864295
-0.00895281
-0.00928889
-0.00965246
-0.0100448
-0.0104673
-0.0109213
-0.0114083
-0.0119297
-0.012487
-0.0130818
-0.0137155
-0.0143897
-0.0151059
-0.0158655
-0.0166699
-0.0175204
-0.0184181
-0.0193641
-0.0203591
-0.0214038
-0.0224985
-0.0236433
-0.0248381
-0.0260824
-0.0273754
-0.0287158
-0.0301022
-0.0315328
-0.0330054
-0.0345175
-0.0360663
-0.0376488
-0.0392618
-0.0409018
-0.0425653
-0.0442486
-0.0459482
-0.0476603
-0.0493814
-0.0511079
-0.0528366
-0.0545643
-0.0562879
-0.0580046
-0.0597116
-0.0614065
-0.0630867
-0.06475
-0.0663938
-0.0680158
-0.0696136
-0.0711843
-0.0727253
-0.0742332
-0.0757047
-0.0771359
-0.0785227
-0.0798603
-0.0811438
-0.0823676
-0.0835259
-0.0846123
-0.0856201
-0.0865424
-0.0873718
-0.0881009
-0.0887219
-0.00677735
-0.0067307
-0.00668805
-0.00665066
-0.00661578
-0.00658304
-0.00655293
-0.00652588
-0.00650228
-0.00648254
-0.00646714
-0.0064566
-0.00645149
-0.00645242
-0.00646005
-0.00647506
-0.00649819
-0.00653022
-0.00657194
-0.00662419
-0.00668783
-0.00676376
-0.00685288
-0.00695613
-0.00707447
-0.00720886
-0.00736029
-0.00752979
-0.00771837
-0.00792708
-0.00815701
-0.00840924
-0.00868491
-0.00898519
-0.00931126
-0.00966436
-0.0100458
-0.0104568
-0.0108989
-0.0113733
-0.0118816
-0.0124253
-0.0130057
-0.0136245
-0.014283
-0.0149829
-0.0157256
-0.0165124
-0.0173447
-0.0182236
-0.0191502
-0.0201254
-0.0211499
-0.0222241
-0.0233482
-0.0245222
-0.0257457
-0.027018
-0.0283381
-0.0297045
-0.0311157
-0.0325696
-0.0340638
-0.0355958
-0.0371625
-0.0387608
-0.0403875
-0.042039
-0.0437117
-0.0454021
-0.0471064
-0.0488211
-0.0505427
-0.0522678
-0.0539931
-0.0557155
-0.057432
-0.0591399
-0.0608365
-0.0625191
-0.0641854
-0.0658328
-0.0674588
-0.0690608
-0.070636
-0.0721816
-0.0736943
-0.0751706
-0.0766067
-0.0779982
-0.0793406
-0.0806287
-0.0818571
-0.0830198
-0.0841104
-0.0851223
-0.0860484
-0.0868814
-0.0876137
-0.0882376
-0.0069164
-0.00686911
-0.00682573
-0.00678752
-0.00675168
-0.00671782
-0.00668642
-0.00665791
-0.00663265
-0.00661104
-0.00659355
-0.00658068
-0.00657298
-0.00657105
-0.00657553
-0.0065871
-0.00660647
-0.0066344
-0.0066717
-0.00671917
-0.00677769
-0.00684812
-0.00693139
-0.00702841
-0.00714013
-0.00726754
-0.00741161
-0.00757335
-0.00775378
-0.00795395
-0.00817493
-0.0084178
-0.00868367
-0.00897371
-0.00928908
-0.00963101
-0.0100007
-0.0103996
-0.0108289
-0.01129
-0.0117843
-0.0123133
-0.0128785
-0.0134814
-0.0141234
-0.014806
-0.0155307
-0.0162989
-0.0171119
-0.017971
-0.0188772
-0.0198316
-0.0208347
-0.0218873
-0.0229897
-0.0241417
-0.0253433
-0.0265939
-0.0278925
-0.0292379
-0.0306287
-0.0320629
-0.0335383
-0.0350524
-0.0366025
-0.0381854
-0.039798
-0.0414368
-0.0430984
-0.0447791
-0.0464753
-0.0481834
-0.0498998
-0.0516211
-0.053344
-0.0550652
-0.0567818
-0.0584907
-0.0601892
-0.0618746
-0.0635443
-0.0651957
-0.0668262
-0.068433
-0.0700133
-0.0715641
-0.0730821
-0.0745637
-0.0760051
-0.077402
-0.0787496
-0.0800428
-0.0812762
-0.0824436
-0.0835389
-0.0845552
-0.0854855
-0.0863223
-0.0870581
-0.0876851
-0.00701793
-0.00697024
-0.00692637
-0.00688755
-0.00685094
-0.00681616
-0.00678367
-0.00675388
-0.00672715
-0.00670385
-0.00668443
-0.00666938
-0.00665923
-0.00665456
-0.006656
-0.0066642
-0.00667986
-0.00670375
-0.00673662
-0.0067793
-0.00683262
-0.00689747
-0.00697474
-0.00706535
-0.00717025
-0.00729041
-0.0074268
-0.00758043
-0.00775232
-0.0079435
-0.00815504
-0.00838801
-0.00864351
-0.00892269
-0.00922671
-0.00955676
-0.00991408
-0.0102999
-0.0107157
-0.0111626
-0.0116421
-0.0121557
-0.0127048
-0.0132908
-0.0139153
-0.0145797
-0.0152855
-0.0160341
-0.0168269
-0.0176651
-0.0185499
-0.0194823
-0.0204631
-0.021493
-0.0225724
-0.0237014
-0.02488
-0.0261077
-0.0273837
-0.0287071
-0.0300764
-0.0314898
-0.0329454
-0.0344408
-0.0359733
-0.0375399
-0.0391377
-0.0407631
-0.0424129
-0.0440833
-0.0457709
-0.047472
-0.049183
-0.0509004
-0.0526208
-0.0543409
-0.0560575
-0.0577677
-0.0594684
-0.0611569
-0.0628305
-0.0644863
-0.0661217
-0.0677338
-0.0693198
-0.0708764
-0.0724003
-0.0738879
-0.0753352
-0.076738
-0.0780913
-0.0793902
-0.0806291
-0.0818019
-0.0829023
-0.0839234
-0.0848582
-0.0856993
-0.086439
-0.0870693
-0.00708543
-0.00703758
-0.00699343
-0.00695419
-0.00691702
-0.00688151
-0.00684812
-0.00681725
-0.00678921
-0.00676439
-0.00674321
-0.00672614
-0.00671369
-0.00670642
-0.00670493
-0.00670986
-0.00672191
-0.0067418
-0.00677029
-0.00680817
-0.00685628
-0.00691548
-0.00698667
-0.00707074
-0.00716864
-0.00728133
-0.00740978
-0.007555
-0.00771798
-0.00789977
-0.00810142
-0.00832399
-0.00856859
-0.00883633
-0.00912837
-0.00944589
-0.0097901
-0.0101623
-0.0105637
-0.0109956
-0.0114596
-0.0119568
-0.0124889
-0.0130572
-0.0136633
-0.0143085
-0.0149945
-0.0157225
-0.016494
-0.0173104
-0.0181727
-0.0190821
-0.0200395
-0.0210456
-0.022101
-0.0232059
-0.0243604
-0.0255641
-0.0268165
-0.0281166
-0.0294633
-0.030855
-0.0322897
-0.0337653
-0.0352793
-0.0368287
-0.0384108
-0.0400221
-0.0416593
-0.0433189
-0.0449974
-0.046691
-0.0483962
-0.0501094
-0.0518272
-0.0535461
-0.055263
-0.0569745
-0.0586777
-0.0603697
-0.0620475
-0.0637082
-0.0653491
-0.0669671
-0.0685592
-0.0701223
-0.0716527
-0.073147
-0.0746009
-0.0760102
-0.07737
-0.0786751
-0.0799201
-0.0810988
-0.0822048
-0.0832313
-0.0841711
-0.0850169
-0.0857608
-0.0863949
-0.00712228
-0.00707448
-0.00703024
-0.00699078
-0.00695322
-0.00691717
-0.00688306
-0.00685127
-0.00682212
-0.00679595
-0.00677318
-0.00675425
-0.00673965
-0.00672992
-0.00672565
-0.00672744
-0.00673598
-0.00675195
-0.00677611
-0.00680924
-0.00685215
-0.00690569
-0.00697072
-0.00704816
-0.00713893
-0.00724398
-0.00736427
-0.0075008
-0.00765457
-0.00782662
-0.00801797
-0.0082297
-0.00846289
-0.00871866
-0.00899813
-0.00930249
-0.00963293
-0.00999069
-0.010377
-0.0107933
-0.0112408
-0.011721
-0.0122352
-0.0127849
-0.0133717
-0.0139969
-0.014662
-0.0153685
-0.0161178
-0.0169113
-0.0177501
-0.0186355
-0.0195684
-0.0205497
-0.02158
-0.0226597
-0.0237889
-0.0249675
-0.0261952
-0.027471
-0.028794
-0.0301628
-0.0315756
-0.0330304
-0.0345248
-0.0360561
-0.0376215
-0.0392179
-0.0408418
-0.0424899
-0.0441586
-0.0458443
-0.0475433
-0.0492521
-0.0509671
-0.0526847
-0.0544017
-0.0561148
-0.0578207
-0.0595164
-0.0611988
-0.0628649
-0.0645118
-0.0661363
-0.0677353
-0.0693054
-0.0708431
-0.0723447
-0.0738059
-0.0752224
-0.0765893
-0.0779015
-0.0791532
-0.0803384
-0.0814506
-0.082483
-0.0834285
-0.0842794
-0.085028
-0.0856663
-0.00713168
-0.00708411
-0.00703998
-0.00700046
-0.0069627
-0.00692627
-0.00689162
-0.0068591
-0.006829
-0.00680166
-0.00677747
-0.00675684
-0.00674026
-0.00672823
-0.00672131
-0.0067201
-0.00672524
-0.00673741
-0.00675734
-0.00678577
-0.00682352
-0.0068714
-0.00693027
-0.00700102
-0.00708457
-0.00718184
-0.0072938
-0.00742143
-0.00756573
-0.00772771
-0.00790841
-0.00810889
-0.00833022
-0.00857351
-0.00883988
-0.00913049
-0.00944653
-0.00978921
-0.0101598
-0.0105596
-0.0109899
-0.0114522
-0.0119477
-0.012478
-0.0130446
-0.0136488
-0.0142923
-0.0149763
-0.0157025
-0.0164721
-0.0172865
-0.0181468
-0.0190542
-0.0200096
-0.0210137
-0.0220671
-0.02317
-0.0243224
-0.0255242
-0.0267746
-0.0280728
-0.0294176
-0.0308074
-0.0322403
-0.0337141
-0.0352263
-0.0367742
-0.0383546
-0.0399645
-0.0416003
-0.0432586
-0.0449358
-0.0466282
-0.0483322
-0.0500441
-0.0517603
-0.0534775
-0.0551921
-0.0569009
-0.0586006
-0.060288
-0.06196
-0.0636133
-0.0652449
-0.0668514
-0.0684293
-0.069975
-0.0714846
-0.0729539
-0.0743784
-0.0757532
-0.077073
-0.0783322
-0.0795246
-0.0806438
-0.0816828
-0.0826344
-0.083491
-0.0842448
-0.0848878
-0.00711667
-0.00706951
-0.00702565
-0.00698623
-0.00694841
-0.00691179
-0.00687676
-0.00684366
-0.00681279
-0.00678445
-0.006759
-0.00673686
-0.00671845
-0.00670428
-0.00669488
-0.00669081
-0.00669269
-0.00670118
-0.00671698
-0.00674082
-0.00677347
-0.00681574
-0.00686846
-0.00693251
-0.00700878
-0.0070982
-0.0072017
-0.00732025
-0.00745486
-0.00760651
-0.00777624
-0.00796511
-0.00817417
-0.00840452
-0.00865728
-0.0089336
-0.00923464
-0.00956162
-0.00991578
-0.0102984
-0.0107108
-0.0111544
-0.0116305
-0.0121405
-0.012686
-0.0132685
-0.0138893
-0.01455
-0.015252
-0.0159968
-0.0167858
-0.0176201
-0.018501
-0.0194295
-0.0204064
-0.0214323
-0.0225078
-0.023633
-0.0248077
-0.0260315
-0.0273038
-0.0286235
-0.0299892
-0.0313991
-0.0328513
-0.0343434
-0.0358727
-0.0374364
-0.0390313
-0.0406541
-0.0423013
-0.0439694
-0.0456546
-0.0473533
-0.0490618
-0.0507765
-0.0524937
-0.05421
-0.0559218
-0.0576257
-0.0593184
-0.0609967
-0.0626571
-0.0642964
-0.065911
-0.0674974
-0.0690518
-0.0705703
-0.0720484
-0.0734817
-0.0748652
-0.0761936
-0.077461
-0.0786613
-0.0797881
-0.0808343
-0.0817927
-0.0826557
-0.0834153
-0.0840634
-0.00708008
-0.00703348
-0.00699005
-0.00695088
-0.00691316
-0.00687649
-0.00684123
-0.00680774
-0.00677625
-0.00674708
-0.00672054
-0.00669704
-0.00667699
-0.00666084
-0.00664911
-0.00664234
-0.00664112
-0.00664608
-0.00665788
-0.00667723
-0.00670489
-0.00674162
-0.00678824
-0.00684561
-0.00691459
-0.00699609
-0.00709104
-0.0072004
-0.00732514
-0.00746625
-0.00762475
-0.00780168
-0.00799811
-0.00821511
-0.0084538
-0.00871531
-0.0090008
-0.00931148
-0.00964857
-0.0100133
-0.0104071
-0.0108313
-0.0112871
-0.0117761
-0.0122998
-0.0128595
-0.0134568
-0.0140933
-0.0147703
-0.0154894
-0.0162519
-0.0170593
-0.0179126
-0.0188132
-0.0197618
-0.0207594
-0.0218064
-0.0229032
-0.0240498
-0.025246
-0.0264912
-0.0277847
-0.0291251
-0.030511
-0.0319405
-0.0334114
-0.0349212
-0.0364671
-0.0380462
-0.0396551
-0.0412905
-0.0429487
-0.0446263
-0.0463193
-0.0480241
-0.0497369
-0.0514541
-0.0531719
-0.0548868
-0.0565952
-0.0582936
-0.0599785
-0.0616465
-0.063294
-0.0649174
-0.066513
-0.068077
-0.069605
-0.0710929
-0.0725359
-0.0739289
-0.0752665
-0.076543
-0.0777521
-0.0788873
-0.0799415
-0.0809074
-0.0817773
-0.0825433
-0.0831972
-0.00702457
-0.00697868
-0.00693582
-0.00689703
-0.00685955
-0.00682296
-0.00678764
-0.00675389
-0.00672195
-0.0066921
-0.00666464
-0.00663995
-0.00661841
-0.00660047
-0.00658658
-0.00657728
-0.00657312
-0.00657469
-0.00658264
-0.00659765
-0.00662042
-0.00665171
-0.00669232
-0.00674305
-0.00680477
-0.00687835
-0.00696471
-0.00706478
-0.00717952
-0.00730991
-0.00745696
-0.0076217
-0.00780518
-0.00800846
-0.00823266
-0.0084789
-0.00874832
-0.00904214
-0.00936156
-0.00970785
-0.0100823
-0.0104863
-0.0109212
-0.0113884
-0.0118893
-0.0124256
-0.0129986
-0.0136099
-0.014261
-0.0149534
-0.0156887
-0.0164681
-0.017293
-0.0181646
-0.019084
-0.0200521
-0.0210696
-0.0221369
-0.0232544
-0.0244218
-0.025639
-0.0269051
-0.0282192
-0.02958
-0.0309857
-0.0324343
-0.0339235
-0.0354508
-0.037013
-0.0386072
-0.04023
-0.0418778
-0.0435469
-0.0452337
-0.0469344
-0.0486451
-0.050362
-0.0520814
-0.0537994
-0.0555124
-0.0572168
-0.0589088
-0.0605848
-0.0622411
-0.063874
-0.0654795
-0.0670537
-0.0685922
-0.0700906
-0.0715441
-0.0729475
-0.0742953
-0.0755818
-0.0768005
-0.0779448
-0.0790078
-0.0799819
-0.0808595
-0.0816326
-0.0822928
-0.0069526
-0.00690754
-0.00686537
-0.00682709
-0.00678997
-0.00675361
-0.00671835
-0.00668449
-0.00665225
-0.00662187
-0.00659366
-0.00656795
-0.0065451
-0.00652552
-0.00650965
-0.00649799
-0.00649106
-0.00648942
-0.00649367
-0.00650448
-0.00652251
-0.00654849
-0.00658318
-0.00662736
-0.00668187
-0.00674756
-0.00682532
-0.00691606
-0.00702072
-0.00714026
-0.00727569
-0.00742801
-0.00759826
-0.00778751
-0.00799684
-0.00822738
-0.00848027
-0.0087567
-0.00905789
-0.00938509
-0.00973959
-0.0101227
-0.0105359
-0.0109805
-0.0114581
-0.01197
-0.0125178
-0.0131032
-0.0137275
-0.0143924
-0.0150994
-0.01585
-0.0166455
-0.0174872
-0.0183764
-0.0193141
-0.020301
-0.0213379
-0.0224251
-0.0235628
-0.0247508
-0.0259885
-0.0272752
-0.0286097
-0.0299906
-0.031416
-0.0328836
-0.0343911
-0.0359357
-0.0375143
-0.0391236
-0.0407601
-0.0424203
-0.0441003
-0.0457964
-0.0475046
-0.0492211
-0.0509418
-0.052663
-0.0543808
-0.0560913
-0.0577907
-0.0594752
-0.0611409
-0.0627839
-0.0644
-0.0659852
-0.067535
-0.0690448
-0.0705096
-0.0719243
-0.0732833
-0.0745805
-0.0758097
-0.0769641
-0.0780366
-0.0790198
-0.0799058
-0.0806865
-0.0813537
-0.00686642
-0.00682232
-0.00678095
-0.00674328
-0.00670665
-0.00667063
-0.00663557
-0.00660174
-0.00656933
-0.00653859
-0.00650977
-0.00648319
-0.00645919
-0.00643815
-0.00642048
-0.00640663
-0.00639711
-0.00639243
-0.00639317
-0.00639993
-0.00641338
-0.00643419
-0.00646309
-0.00650083
-0.00654822
-0.00660608
-0.00667526
-0.00675666
-0.00685119
-0.00695981
-0.00708348
-0.0072232
-0.00738
-0.00755493
-0.00774907
-0.00796354
-0.00819947
-0.00845804
-0.00874047
-0.009048
-0.00938193
-0.0097436
-0.0101344
-0.0105557
-0.011009
-0.0114959
-0.0120178
-0.0125763
-0.0131731
-0.0138096
-0.0144875
-0.0152083
-0.0159735
-0.0167845
-0.0176425
-0.0185488
-0.0195042
-0.0205097
-0.0215657
-0.0226726
-0.0238303
-0.0250386
-0.0262968
-0.0276041
-0.0289591
-0.0303601
-0.0318052
-0.033292
-0.0348179
-0.03638
-0.037975
-0.0395995
-0.04125
-0.0429227
-0.0446137
-0.046319
-0.0480347
-0.0497568
-0.0514811
-0.0532037
-0.0549206
-0.0566277
-0.0583211
-0.0599966
-0.0616503
-0.0632777
-0.0648747
-0.0664365
-0.0679586
-0.0694357
-0.0708625
-0.0722335
-0.0735424
-0.074783
-0.0759483
-0.0770312
-0.0780242
-0.0789194
-0.0797086
-0.0803834
-0.00676813
-0.00672507
-0.00668461
-0.00664765
-0.00661161
-0.00657605
-0.00654131
-0.00650763
-0.00647519
-0.00644422
-0.00641495
-0.00638766
-0.00636268
-0.00634034
-0.00632104
-0.00630519
-0.00629325
-0.00628571
-0.00628311
-0.00628602
-0.00629505
-0.00631085
-0.00633411
-0.00636554
-0.00640592
-0.00645603
-0.0065167
-0.00658879
-0.00667319
-0.00677082
-0.00688264
-0.00700963
-0.0071528
-0.00731318
-0.00749185
-0.00768991
-0.00790849
-0.00814877
-0.00841195
-0.00869929
-0.00901208
-0.00935165
-0.0097194
-0.0101167
-0.0105452
-0.0110062
-0.0115014
-0.0120324
-0.0126007
-0.0132081
-0.013856
-0.0145462
-0.0152803
-0.0160595
-0.0168855
-0.0177595
-0.0186825
-0.0196556
-0.0206794
-0.0217545
-0.022881
-0.0240588
-0.0252876
-0.0265666
-0.0278947
-0.0292704
-0.0306919
-0.032157
-0.0336633
-0.035208
-0.0367879
-0.0383997
-0.0400398
-0.0417045
-0.0433898
-0.0450919
-0.0468065
-0.0485296
-0.0502569
-0.0519844
-0.0537077
-0.0554228
-0.0571255
-0.0588114
-0.0604763
-0.0621157
-0.0637251
-0.0652998
-0.0668349
-0.0683252
-0.0697651
-0.071149
-0.0724706
-0.0737234
-0.0749005
-0.0759947
-0.0769984
-0.0779035
-0.078702
-0.0793851
-0.00665959
-0.00661767
-0.0065782
-0.00654206
-0.00650669
-0.0064717
-0.00643739
-0.00640398
-0.00637165
-0.00634058
-0.00631099
-0.00628315
-0.00625734
-0.00623388
-0.00621312
-0.00619544
-0.00618126
-0.00617105
-0.0061653
-0.00616453
-0.00616933
-0.0061803
-0.00619808
-0.00622336
-0.00625685
-0.00629933
-0.00635157
-0.00641441
-0.0064887
-0.00657534
-0.00667527
-0.00678943
-0.00691882
-0.00706446
-0.00722741
-0.00740877
-0.00760967
-0.00783126
-0.00807476
-0.00834141
-0.00863252
-0.00894943
-0.00929353
-0.00966625
-0.0100691
-0.0105036
-0.0109714
-0.011474
-0.0120132
-0.0125905
-0.0132078
-0.0138666
-0.0145686
-0.0153154
-0.0161084
-0.0169492
-0.017839
-0.0187788
-0.0197695
-0.0208118
-0.0219062
-0.0230527
-0.024251
-0.0255008
-0.026801
-0.0281503
-0.0295473
-0.0309898
-0.0324756
-0.034002
-0.0355659
-0.0371641
-0.0387931
-0.0404492
-0.0421284