/*--------------------------------*- C++ -*----------------------------------*\
| =========                 |                                                 |
| \\      /  F ield         | OpenFOAM: The Open Source CFD Toolbox           |
|  \\    /   O peration     | Version:  2406                                  |
|   \\  /    A nd           | Website:  www.openfoam.com                      |
|    \\/     M anipulation  |                                                 |
\*---------------------------------------------------------------------------*/
FoamFile
{
    version     2.0;
    format      ascii;
    arch        "LSB;label=32;scalar=64";
    class       surfaceScalarField;
    location    "20";
    object      phi;
}
// * * * * * * * * * * * * * * * * * * * * * * * * * * * * * * * * * * * * * //

dimensions      [0 3 -1 0 0 0 0];

oriented        oriented;

internalField   nonuniform List<scalar> 
79600
(
5.41557e-09
6.19529e-07
-6.24944e-07
1.98466e-08
1.86144e-06
-1.87587e-06
4.15103e-08
3.12518e-06
-3.14684e-06
6.84895e-08
4.40972e-06
-4.4367e-06
9.87469e-08
5.71389e-06
-5.74414e-06
1.30142e-07
7.03637e-06
-7.06777e-06
1.60451e-07
8.37575e-06
-8.40606e-06
1.8739e-07
9.73048e-06
-9.75742e-06
2.08639e-07
1.1099e-05
-1.11202e-05
2.21865e-07
1.24795e-05
-1.24928e-05
2.24757e-07
1.38705e-05
-1.38734e-05
2.15047e-07
1.52703e-05
-1.52606e-05
1.90548e-07
1.66772e-05
-1.66527e-05
1.49176e-07
1.80898e-05
-1.80484e-05
8.89844e-08
1.95067e-05
-1.94465e-05
8.19117e-09
2.09266e-05
-2.08458e-05
-9.47959e-08
2.23486e-05
-2.22457e-05
-2.21355e-07
2.3772e-05
-2.36455e-05
-3.72628e-07
2.51964e-05
-2.50451e-05
-5.49507e-07
2.66215e-05
-2.64446e-05
-7.52622e-07
2.80476e-05
-2.78445e-05
-9.82331e-07
2.94753e-05
-2.92456e-05
-1.23872e-06
3.09054e-05
-3.0649e-05
-1.5216e-06
3.23393e-05
-3.20564e-05
-1.83054e-06
3.37785e-05
-3.34695e-05
-2.16485e-06
3.52249e-05
-3.48906e-05
-2.5236e-06
3.66806e-05
-3.63219e-05
-2.90568e-06
3.81481e-05
-3.7766e-05
-3.30979e-06
3.96299e-05
-3.92258e-05
-3.73447e-06
4.11285e-05
-4.07038e-05
-4.17818e-06
4.26466e-05
-4.22029e-05
-4.63924e-06
4.41867e-05
-4.37257e-05
-5.11595e-06
4.57513e-05
-4.52745e-05
-5.60657e-06
4.73423e-05
-4.68517e-05
-6.10936e-06
4.89616e-05
-4.84588e-05
-6.62259e-06
5.06106e-05
-5.00974e-05
-7.14459e-06
5.22901e-05
-5.17681e-05
-7.67373e-06
5.40004e-05
-5.34713e-05
-8.20844e-06
5.57411e-05
-5.52064e-05
-8.74723e-06
5.75112e-05
-5.69724e-05
-9.28866e-06
5.93089e-05
-5.87675e-05
-9.83138e-06
6.11316e-05
-6.05889e-05
-1.03741e-05
6.29761e-05
-6.24334e-05
-1.09156e-05
6.48382e-05
-6.42967e-05
-1.14546e-05
6.6713e-05
-6.6174e-05
-1.19901e-05
6.85949e-05
-6.80594e-05
-1.25208e-05
7.04773e-05
-6.99466e-05
-1.30458e-05
7.23532e-05
-7.18283e-05
-1.3564e-05
7.42148e-05
-7.36966e-05
-1.40744e-05
7.60536e-05
-7.55433e-05
-1.45759e-05
7.78606e-05
-7.73591e-05
-1.50677e-05
7.96264e-05
-7.91346e-05
-1.55488e-05
8.13411e-05
-8.086e-05
-1.60184e-05
8.29947e-05
-8.2525e-05
-1.64759e-05
8.45768e-05
-8.41193e-05
-1.69205e-05
8.60771e-05
-8.56325e-05
-1.73518e-05
8.74856e-05
-8.70544e-05
-1.77693e-05
8.87924e-05
-8.83748e-05
-1.81729e-05
8.99879e-05
-8.95843e-05
-1.85624e-05
9.10633e-05
-9.06738e-05
-1.8938e-05
9.20107e-05
-9.16351e-05
-1.93e-05
9.2823e-05
-9.24609e-05
-1.9649e-05
9.34941e-05
-9.31451e-05
-1.99856e-05
9.40193e-05
-9.36827e-05
-2.03109e-05
9.43953e-05
-9.40701e-05
-2.06259e-05
9.46201e-05
-9.43051e-05
-2.09321e-05
9.46931e-05
-9.4387e-05
-2.12307e-05
9.46153e-05
-9.43167e-05
-2.15236e-05
9.4389e-05
-9.40962e-05
-2.18124e-05
9.40178e-05
-9.3729e-05
-2.20988e-05
9.35062e-05
-9.32198e-05
-2.23848e-05
9.28599e-05
-9.2574e-05
-2.2672e-05
9.20849e-05
-9.17977e-05
-2.29623e-05
9.11877e-05
-9.08974e-05
-2.32573e-05
9.01745e-05
-8.98795e-05
-2.35585e-05
8.90514e-05
-8.87502e-05
-2.38673e-05
8.78238e-05
-8.7515e-05
-2.41848e-05
8.64957e-05
-8.61782e-05
-2.45121e-05
8.50702e-05
-8.4743e-05
-2.48498e-05
8.35486e-05
-8.32108e-05
-2.51986e-05
8.19305e-05
-8.15817e-05
-2.55588e-05
8.02136e-05
-7.98534e-05
-2.59305e-05
7.83937e-05
-7.8022e-05
-2.63137e-05
7.64649e-05
-7.60816e-05
-2.67082e-05
7.44192e-05
-7.40246e-05
-2.71139e-05
7.22472e-05
-7.18415e-05
-2.75304e-05
6.99382e-05
-6.95217e-05
-2.79573e-05
6.748e-05
-6.70531e-05
-2.83942e-05
6.48599e-05
-6.4423e-05
-2.88408e-05
6.20644e-05
-6.16177e-05
-2.92969e-05
5.90797e-05
-5.86236e-05
-2.97621e-05
5.5892e-05
-5.54267e-05
-3.02365e-05
5.24876e-05
-5.20133e-05
-3.07199e-05
4.88533e-05
-4.83699e-05
-3.12125e-05
4.49761e-05
-4.44835e-05
-3.17144e-05
4.08438e-05
-4.03419e-05
-3.22259e-05
3.64448e-05
-3.59333e-05
-3.27474e-05
3.1768e-05
-3.12465e-05
-3.32793e-05
2.68032e-05
-2.62712e-05
2.15405e-05
-3.38222e-05
-2.09976e-05
7.50838e-09
6.12021e-07
2.82029e-08
1.84075e-06
6.03428e-08
3.09304e-06
1.02046e-07
4.36801e-06
1.51298e-07
5.66463e-06
2.05969e-07
6.9817e-06
2.63832e-07
8.31788e-06
3.22581e-07
9.67173e-06
3.79855e-07
1.10417e-05
4.33263e-07
1.24261e-05
4.80414e-07
1.38234e-05
5.18939e-07
1.52318e-05
5.46529e-07
1.66496e-05
5.6096e-07
1.80754e-05
5.60128e-07
1.95075e-05
5.42074e-07
2.09447e-05
5.05016e-07
2.23857e-05
4.47377e-07
2.38297e-05
3.67806e-07
2.52759e-05
2.65196e-07
2.67241e-05
1.38707e-07
2.81741e-05
-1.22287e-08
2.96262e-05
-1.879e-07
3.10811e-05
-3.88314e-07
3.25397e-05
-6.13205e-07
3.40034e-05
-8.62041e-07
3.54737e-05
-1.13405e-06
3.69526e-05
-1.42822e-06
3.84423e-05
-1.74336e-06
3.9945e-05
-2.07808e-06
4.14632e-05
-2.43089e-06
4.29994e-05
-2.80015e-06
4.4556e-05
-3.18418e-06
4.61353e-05
-3.58125e-06
4.77394e-05
-3.98962e-06
4.937e-05
-4.40755e-06
5.10286e-05
-4.83337e-06
5.27159e-05
-5.26546e-06
5.44325e-05
-5.70225e-06
5.61779e-05
-6.14229e-06
5.79512e-05
-6.58421e-06
5.97508e-05
-7.0267e-06
6.15741e-05
-7.46859e-06
6.3418e-05
-7.90877e-06
6.52784e-05
-8.34619e-06
6.71504e-05
-8.77991e-06
6.90286e-05
-9.20902e-06
7.09064e-05
-9.6327e-06
7.27769e-05
-1.00502e-05
7.46323e-05
-1.04607e-05
7.64641e-05
-1.08636e-05
7.82635e-05
-1.12583e-05
8.00211e-05
-1.16443e-05
8.17271e-05
-1.2021e-05
8.33714e-05
-1.23882e-05
8.49439e-05
-1.27454e-05
8.64344e-05
-1.30925e-05
8.78327e-05
-1.34294e-05
8.91293e-05
-1.37562e-05
9.03146e-05
-1.4073e-05
9.13802e-05
-1.43803e-05
9.2318e-05
-1.46784e-05
9.31211e-05
-1.4968e-05
9.37837e-05
-1.525e-05
9.43013e-05
-1.55251e-05
9.46705e-05
-1.57945e-05
9.48895e-05
-1.60594e-05
9.4958e-05
-1.63209e-05
9.48768e-05
-1.65804e-05
9.46485e-05
-1.68393e-05
9.42767e-05
-1.70989e-05
9.37658e-05
-1.73606e-05
9.31216e-05
-1.76256e-05
9.235e-05
-1.78953e-05
9.14574e-05
-1.81708e-05
9.045e-05
-1.84531e-05
8.93337e-05
-1.87429e-05
8.81137e-05
-1.90412e-05
8.6794e-05
-1.93484e-05
8.53774e-05
-1.9665e-05
8.38652e-05
-1.99913e-05
8.22567e-05
-2.03273e-05
8.05496e-05
-2.06733e-05
7.87396e-05
-2.1029e-05
7.68206e-05
-2.13946e-05
7.47847e-05
-2.17697e-05
7.26224e-05
-2.21545e-05
7.03229e-05
-2.25486e-05
6.78741e-05
-2.29521e-05
6.52634e-05
-2.33651e-05
6.24773e-05
-2.37876e-05
5.95021e-05
-2.42198e-05
5.63242e-05
-2.4662e-05
5.29298e-05
-2.51146e-05
4.93059e-05
-2.5578e-05
4.54396e-05
-2.6053e-05
4.13187e-05
-2.654e-05
3.69318e-05
-2.70398e-05
3.22678e-05
-2.75532e-05
2.73166e-05
2.20683e-05
-2.8081e-05
9.38589e-09
6.02635e-07
3.57214e-08
1.81441e-06
7.73305e-08
3.05143e-06
1.32389e-07
4.31295e-06
1.98933e-07
5.59809e-06
2.74871e-07
6.90576e-06
3.58001e-07
8.23475e-06
4.46025e-07
9.58371e-06
5.36575e-07
1.09511e-05
6.27234e-07
1.23355e-05
7.1556e-07
1.37351e-05
7.99119e-07
1.51482e-05
8.75511e-07
1.65733e-05
9.42399e-07
1.80085e-05
9.97547e-07
1.94524e-05
1.03885e-06
2.09034e-05
1.06435e-06
2.23602e-05
1.07228e-06
2.38217e-05
1.06111e-06
2.52871e-05
1.02953e-06
2.67557e-05
9.76471e-07
2.82272e-05
9.01171e-07
2.97015e-05
8.03131e-07
3.11791e-05
6.82143e-07
3.26607e-05
5.38284e-07
3.41472e-05
3.71909e-07
3.56401e-05
1.83637e-07
3.71409e-05
-2.5669e-08
3.86516e-05
-2.54925e-07
4.01743e-05
-5.02854e-07
4.17112e-05
-7.68022e-07
4.32646e-05
-1.04887e-06
4.48368e-05
-1.34374e-06
4.64302e-05
-1.65092e-06
4.80466e-05
-1.9687e-06
4.96878e-05
-2.29535e-06
5.13552e-05
-2.62919e-06
5.30498e-05
-2.9686e-06
5.47719e-05
-3.31206e-06
5.65214e-05
-3.65811e-06
5.82973e-05
-4.00544e-06
6.00981e-05
-4.35282e-06
6.19215e-05
-4.69914e-06
6.37643e-05
-5.0434e-06
6.56226e-05
-5.38472e-06
6.74918e-05
-5.7223e-06
6.93662e-05
-6.05545e-06
7.12396e-05
-6.38355e-06
7.3105e-05
-6.70608e-06
7.49548e-05
-7.02257e-06
7.67806e-05
-7.33265e-06
7.85736e-05
-7.63601e-06
8.03245e-05
-7.93242e-06
8.20235e-05
-8.22172e-06
8.36607e-05
-8.50384e-06
8.5226e-05
-8.77879e-06
8.67093e-05
-9.04667e-06
8.81006e-05
-9.3077e-06
8.93903e-05
-9.56216e-06
9.05691e-05
-9.81048e-06
9.16285e-05
-1.00532e-05
9.25607e-05
-1.02908e-05
9.33588e-05
-1.05242e-05
9.40171e-05
-1.07541e-05
9.45311e-05
-1.09813e-05
9.48977e-05
-1.12069e-05
9.51151e-05
-1.14318e-05
9.51829e-05
-1.1657e-05
9.51021e-05
-1.18837e-05
9.48752e-05
-1.21127e-05
9.45057e-05
-1.23452e-05
9.39983e-05
-1.25819e-05
9.33584e-05
-1.28239e-05
9.25919e-05
-1.30718e-05
9.17052e-05
-1.33262e-05
9.07045e-05
-1.35879e-05
8.95953e-05
-1.38571e-05
8.83829e-05
-1.41342e-05
8.70711e-05
-1.44194e-05
8.56627e-05
-1.47129e-05
8.41587e-05
-1.50148e-05
8.25585e-05
-1.53249e-05
8.08598e-05
-1.56434e-05
7.90581e-05
-1.59702e-05
7.71474e-05
-1.63053e-05
7.51198e-05
-1.66487e-05
7.29658e-05
-1.70005e-05
7.06747e-05
-1.73609e-05
6.82346e-05
-1.77303e-05
6.56327e-05
-1.81088e-05
6.28559e-05
-1.84971e-05
5.98904e-05
-1.88956e-05
5.67227e-05
-1.93052e-05
5.33394e-05
-1.97265e-05
4.97272e-05
-2.01605e-05
4.58735e-05
-2.0608e-05
4.17662e-05
-2.107e-05
3.73938e-05
-2.15476e-05
3.27455e-05
-2.20419e-05
2.78109e-05
2.25803e-05
-2.2554e-05
1.10481e-08
5.91587e-07
4.24022e-08
1.78306e-06
9.24699e-08
3.00136e-06
1.59506e-07
4.24592e-06
2.4162e-07
5.51598e-06
3.36782e-07
6.8106e-06
4.42844e-07
8.12869e-06
5.57545e-07
9.46901e-06
6.7854e-07
1.08301e-05
8.03413e-07
1.22106e-05
9.29709e-07
1.36088e-05
1.05495e-06
1.5023e-05
1.17669e-06
1.64515e-05
1.2925e-06
1.78927e-05
1.40004e-06
1.93448e-05
1.49707e-06
2.08063e-05
1.58151e-06
2.22758e-05
1.65142e-06
2.37518e-05
1.70508e-06
2.52334e-05
1.741e-06
2.67198e-05
1.75791e-06
2.82102e-05
1.75483e-06
2.97046e-05
1.73106e-06
3.12029e-05
1.68619e-06
3.27056e-05
1.6201e-06
3.42133e-05
1.53294e-06
3.57272e-05
1.42518e-06
3.72487e-05
1.2975e-06
3.87793e-05
1.15087e-06
4.03209e-05
9.86425e-07
4.18756e-05
8.05514e-07
4.34455e-05
6.0962e-07
4.50327e-05
4.00334e-07
4.66394e-05
1.79324e-07
4.82676e-05
-5.17116e-08
4.99188e-05
-2.91072e-07
5.15946e-05
-5.37089e-07
5.32958e-05
-7.88158e-07
5.5023e-05
-1.04276e-06
5.6776e-05
-1.29947e-06
5.8554e-05
-1.55701e-06
6.03557e-05
-1.81419e-06
6.21787e-05
-2.07e-06
6.40201e-05
-2.32352e-06
6.58762e-05
-2.57399e-06
6.77422e-05
-2.82076e-06
6.96129e-05
-3.0633e-06
7.14821e-05
-3.30121e-06
7.33429e-05
-3.53417e-06
7.51878e-05
-3.76196e-06
7.70084e-05
-3.98447e-06
7.87961e-05
-4.20166e-06
8.05417e-05
-4.41358e-06
8.22354e-05
-4.62036e-06
8.38675e-05
-4.82222e-06
8.54279e-05
-5.01945e-06
8.69065e-05
-5.21241e-06
8.82936e-05
-5.40157e-06
8.95795e-05
-5.58746e-06
9.0755e-05
-5.77066e-06
9.18117e-05
-5.95187e-06
9.27419e-05
-6.13179e-06
9.35387e-05
-6.31122e-06
9.41965e-05
-6.49097e-06
9.47109e-05
-6.67188e-06
9.50786e-05
-6.8548e-06
9.5298e-05
-7.04057e-06
9.53686e-05
-7.23001e-06
9.52915e-05
-7.42387e-06
9.5069e-05
-7.62286e-06
9.47047e-05
-7.82761e-06
9.4203e-05
-8.03865e-06
9.35694e-05
-8.25641e-06
9.28097e-05
-8.48124e-06
9.19301e-05
-8.71335e-06
9.09366e-05
-8.95289e-06
8.98348e-05
-9.19988e-06
8.86299e-05
-9.45429e-06
8.73255e-05
-9.71604e-06
8.59244e-05
-9.985e-06
8.44277e-05
-1.0261e-05
8.28346e-05
-1.0544e-05
8.11428e-05
-1.08339e-05
7.9348e-05
-1.11307e-05
7.74442e-05
-1.14344e-05
7.54235e-05
-1.17453e-05
7.32767e-05
-1.20636e-05
7.0993e-05
-1.23898e-05
6.85608e-05
-1.27245e-05
6.59674e-05
-1.30683e-05
6.31997e-05
-1.34221e-05
6.02442e-05
-1.37869e-05
5.70875e-05
-1.41636e-05
5.37161e-05
-1.45534e-05
5.0117e-05
-1.49576e-05
4.62777e-05
-1.53774e-05
4.2186e-05
-1.58142e-05
3.78306e-05
-1.62693e-05
3.32005e-05
-1.6744e-05
2.82856e-05
2.30761e-05
-1.72398e-05
1.2499e-08
5.79088e-07
4.82584e-08
1.7473e-06
1.05785e-07
2.94383e-06
1.8343e-07
4.16827e-06
2.79397e-07
5.42001e-06
3.91742e-07
6.69825e-06
5.1839e-07
8.00204e-06
6.57148e-07
9.33025e-06
8.05716e-07
1.06816e-05
9.61714e-07
1.20546e-05
1.1227e-06
1.34478e-05
1.28619e-06
1.48595e-05
1.4497e-06
1.6288e-05
1.61075e-06
1.77316e-05
1.76694e-06
1.91886e-05
1.91593e-06
2.06573e-05
2.05549e-06
2.21362e-05
2.18358e-06
2.36237e-05
2.29829e-06
2.51187e-05
2.39795e-06
2.66201e-05
2.48113e-06
2.81271e-05
2.54663e-06
2.96391e-05
2.59355e-06
3.1156e-05
2.62128e-06
3.26778e-05
2.62947e-06
3.42051e-05
2.61811e-06
3.57386e-05
2.58744e-06
3.72793e-05
2.53801e-06
3.88287e-05
2.4706e-06
4.03883e-05
2.38622e-06
4.196e-05
2.2861e-06
4.35456e-05
2.17163e-06
4.51472e-05
2.04432e-06
4.67668e-05
1.90577e-06
4.84061e-05
1.75765e-06
5.00669e-05
1.60162e-06
5.17506e-05
1.43934e-06
5.34581e-05
1.27239e-06
5.51899e-05
1.10228e-06
5.69461e-05
9.30407e-07
5.87259e-05
7.58035e-07
6.0528e-05
5.86292e-07
6.23504e-05
4.16155e-07
6.41903e-05
2.48446e-07
6.60439e-05
8.38351e-08
6.79068e-05
-7.71565e-08
6.97739e-05
-2.34151e-07
7.16391e-05
-3.86905e-07
7.34957e-05
-5.35301e-07
7.53362e-05
-6.79341e-07
7.71525e-05
-8.19134e-07
7.89359e-05
-9.54889e-07
8.06774e-05
-1.08691e-06
8.23674e-05
-1.21559e-06
8.39962e-05
-1.3414e-06
8.55537e-05
-1.46488e-06
8.703e-05
-1.58666e-06
8.84154e-05
-1.7074e-06
8.97002e-05
-1.82785e-06
9.08754e-05
-1.94878e-06
9.19326e-05
-2.071e-06
9.28641e-05
-2.19533e-06
9.3663e-05
-2.32263e-06
9.43238e-05
-2.45371e-06
9.4842e-05
-2.58937e-06
9.52143e-05
-2.73038e-06
9.5439e-05
-2.87742e-06
9.55157e-05
-3.03111e-06
9.54452e-05
-3.19197e-06
9.52299e-05
-3.36042e-06
9.48732e-05
-3.53675e-06
9.43794e-05
-3.72115e-06
9.37538e-05
-3.91367e-06
9.30022e-05
-4.11425e-06
9.21307e-05
-4.32274e-06
9.11451e-05
-4.53888e-06
9.0051e-05
-4.76236e-06
8.88533e-05
-4.99282e-06
8.7556e-05
-5.22988e-06
8.61615e-05
-5.4732e-06
8.4671e-05
-5.72246e-06
8.30838e-05
-5.97745e-06
8.13978e-05
-6.23802e-06
7.96086e-05
-6.50421e-06
7.77104e-05
-6.77617e-06
7.56955e-05
-7.05422e-06
7.35547e-05
-7.33886e-06
7.12777e-05
-7.63077e-06
6.88527e-05
-7.9308e-06
6.62674e-05
-8.23994e-06
6.35088e-05
-8.55935e-06
6.05636e-05
-8.89032e-06
5.74184e-05
-9.23423e-06
5.406e-05
-9.59263e-06
5.04754e-05
-9.96703e-06
4.66521e-05
-1.0359e-05
4.25781e-05
-1.07703e-05
3.82419e-05
-1.12025e-05
3.36327e-05
-1.16573e-05
2.87404e-05
2.35552e-05
-1.21364e-05
1.3745e-08
5.65343e-07
5.33127e-08
1.70773e-06
1.17322e-07
2.87982e-06
2.04236e-07
4.08136e-06
3.12368e-07
5.31188e-06
4.39878e-07
6.57074e-06
5.8479e-07
7.85713e-06
7.44995e-07
9.17004e-06
9.18269e-07
1.05083e-05
1.10229e-06
1.18706e-05
1.29465e-06
1.32554e-05
1.4929e-06
1.46612e-05
1.69455e-06
1.60864e-05
1.8971e-06
1.75291e-05
2.09809e-06
1.89876e-05
2.29512e-06
2.04603e-05
2.48588e-06
2.19454e-05
2.66817e-06
2.34414e-05
2.83999e-06
2.49469e-05
2.99949e-06
2.64606e-05
3.14505e-06
2.79815e-05
3.2753e-06
2.95088e-05
3.38915e-06
3.10421e-05
3.48575e-06
3.25812e-05
3.56459e-06
3.41263e-05
3.62542e-06
3.56778e-05
3.66831e-06
3.72364e-05
3.6936e-06
3.88034e-05
3.7019e-06
4.038e-05
3.69409e-06
4.19678e-05
3.67124e-06
4.35685e-05
3.63463e-06
4.51838e-05
3.58567e-06
4.68157e-05
3.52589e-06
4.84659e-05
3.4569e-06
5.01359e-05
3.38032e-06
5.18272e-05
3.29778e-06
5.35406e-05
3.21084e-06
5.52769e-05
3.12099e-06
5.70359e-05
3.02961e-06
5.88173e-05
2.93795e-06
6.06197e-05
2.84711e-06
6.24413e-05
2.75801e-06
6.42794e-05
2.67141e-06
6.61305e-05
2.58792e-06
6.79903e-05
2.50795e-06
6.98539e-05
2.43174e-06
7.17153e-05
2.35941e-06
7.3568e-05
2.2909e-06
7.54047e-05
2.22603e-06
7.72173e-05
2.16447e-06
7.89975e-05
2.10582e-06
8.07361e-05
2.04952e-06
8.24237e-05
1.99497e-06
8.40507e-05
1.94145e-06
8.56072e-05
1.88818e-06
8.70833e-05
1.83434e-06
8.84692e-05
1.77904e-06
8.97555e-05
1.72136e-06
9.09331e-05
1.66036e-06
9.19936e-05
1.5951e-06
9.29293e-05
1.52466e-06
9.37335e-05
1.44815e-06
9.44003e-05
1.36472e-06
9.49254e-05
1.27361e-06
9.53054e-05
1.17414e-06
9.55385e-05
1.06575e-06
9.56241e-05
9.47992e-07
9.5563e-05
8.20561e-07
9.53573e-05
6.83303e-07
9.50104e-05
5.36209e-07
9.45265e-05
3.7942e-07
9.39106e-05
2.13213e-07
9.31684e-05
3.79928e-08
9.23059e-05
-1.45702e-07
9.13288e-05
-3.3731e-07
9.02426e-05
-5.36188e-07
8.90522e-05
-7.41682e-07
8.77615e-05
-9.53164e-07
8.6373e-05
-1.17007e-06
8.48879e-05
-1.39193e-06
8.33057e-05
-1.61841e-06
8.16243e-05
-1.84935e-06
7.98395e-05
-2.08476e-06
7.79458e-05
-2.32489e-06
7.59356e-05
-2.57018e-06
7.38e-05
-2.8213e-06
7.15288e-05
-3.07914e-06
6.91105e-05
-3.34479e-06
6.65331e-05
-3.61956e-06
6.37836e-05
-3.9049e-06
6.0849e-05
-4.20239e-06
5.77159e-05
-4.51369e-06
5.43713e-05
-4.84089e-06
5.08026e-05
-5.18561e-06
4.69968e-05
-5.54983e-06
4.29423e-05
-5.93553e-06
3.86276e-05
-6.34468e-06
3.40419e-05
-6.77921e-06
2.91749e-05
2.40171e-05
-7.24107e-06
1.47947e-08
5.50548e-07
5.75964e-08
1.66493e-06
1.27146e-07
2.81028e-06
2.22031e-07
3.98647e-06
3.40687e-07
5.19322e-06
4.81395e-07
6.43004e-06
6.42293e-07
7.69624e-06
8.21379e-07
8.99096e-06
1.01653e-06
1.03132e-05
1.22549e-06
1.16616e-05
1.44594e-06
1.3035e-05
1.67546e-06
1.44317e-05
1.91159e-06
1.58502e-05
2.15185e-06
1.72888e-05
2.39375e-06
1.87457e-05
2.63484e-06
2.02192e-05
2.87275e-06
2.17075e-05
3.1052e-06
2.3209e-05
3.33005e-06
2.47221e-05
3.54533e-06
2.62453e-05
3.74926e-06
2.77776e-05
3.9403e-06
2.93178e-05
4.11714e-06
3.08653e-05
4.27878e-06
3.24196e-05
4.42447e-06
3.39806e-05
4.55377e-06
3.55485e-05
4.66654e-06
3.71237e-05
4.76292e-06
3.8707e-05
4.84336e-06
4.02996e-05
4.90854e-06
4.19026e-05
4.9594e-06
4.35176e-05
4.99706e-06
4.51462e-05
5.02284e-06
4.67899e-05
5.03818e-06
4.84506e-05
5.04459e-06
5.01295e-05
5.04366e-06
5.18281e-05
5.03697e-06
5.35473e-05
5.02605e-06
5.52878e-05
5.01238e-06
5.70496e-05
4.99732e-06
5.88323e-05
4.98211e-06
6.06349e-05
4.96781e-06
6.24556e-05
4.95533e-06
6.42918e-05
4.94539e-06
6.61404e-05
4.93853e-06
6.79972e-05
4.93507e-06
6.98574e-05
4.93517e-06
7.17152e-05
4.93882e-06
7.35644e-05
4.94583e-06
7.53977e-05
4.95584e-06
7.72073e-05
4.96838e-06
7.89849e-05
4.98282e-06
8.07216e-05
4.99844e-06
8.24081e-05
5.01439e-06
8.40348e-05
5.02978e-06
8.55918e-05
5.0436e-06
8.70694e-05
5.05483e-06
8.8458e-05
5.06239e-06
8.97479e-05
5.0652e-06
9.09303e-05
5.06217e-06
9.19967e-05
5.05223e-06
9.29393e-05
5.03436e-06
9.37513e-05
5.00763e-06
9.44271e-05
4.97116e-06
9.49619e-05
4.92422e-06
9.53523e-05
4.86618e-06
9.55965e-05
4.7966e-06
9.56937e-05
4.71516e-06
9.56444e-05
4.62177e-06
9.54507e-05
4.51647e-06
9.51157e-05
4.39953e-06
9.46434e-05
4.27135e-06
9.40388e-05
4.13253e-06
9.33073e-05
3.98377e-06
9.24546e-05
3.8259e-06
9.14866e-05
3.65981e-06
9.04087e-05
3.48644e-06
8.92256e-05
3.30671e-06
8.79412e-05
3.12148e-06
8.65582e-05
2.93151e-06
8.50778e-05
2.73741e-06
8.34998e-05
2.53963e-06
8.1822e-05
2.33838e-06
8.00408e-05
2.13362e-06
7.81505e-05
1.92509e-06
7.61441e-05
1.71222e-06
7.40129e-05
1.49419e-06
7.17468e-05
1.26993e-06
6.93348e-05
1.03809e-06
6.67649e-05
7.97148e-07
6.40245e-05
5.4535e-07
6.11008e-05
2.80762e-07
5.79805e-05
1.22952e-09
5.46508e-05
-2.94701e-07
5.10986e-05
-6.09893e-07
4.7312e-05
-9.46453e-07
4.32788e-05
-1.30659e-06
3.89877e-05
-1.69256e-06
3.44278e-05
-2.10657e-06
2.9589e-05
2.44613e-05
-2.55085e-06
1.56582e-08
5.3489e-07
6.11469e-08
1.61944e-06
1.35336e-07
2.73609e-06
2.36947e-07
3.88486e-06
3.64548e-07
5.06562e-06
5.16554e-07
6.27803e-06
6.91231e-07
7.52156e-06
8.86701e-07
8.79549e-06
1.10095e-06
1.00989e-05
1.33184e-06
1.14307e-05
1.57713e-06
1.27897e-05
1.83447e-06
1.41744e-05
2.10145e-06
1.55832e-05
2.37563e-06
1.70146e-05
2.65452e-06
1.84668e-05
2.93567e-06
1.99381e-05
3.21666e-06
2.14265e-05
3.49514e-06
2.29305e-05
3.76888e-06
2.44483e-05
4.0358e-06
2.59784e-05
4.29397e-06
2.75194e-05
4.54171e-06
2.90701e-05
4.77753e-06
3.06295e-05
5.00022e-06
3.21969e-05
5.20886e-06
3.3772e-05
5.40279e-06
3.53545e-05
5.58168e-06
3.69448e-05
5.74545e-06
3.85432e-05
5.89437e-06
4.01507e-05
6.02892e-06
4.1768e-05
6.14989e-06
4.33966e-05
6.25824e-06
4.50378e-05
6.35517e-06
4.6693e-05
6.44199e-06
4.83637e-05
6.52015e-06
5.00513e-05
6.59115e-06
5.17571e-05
6.65653e-06
5.34819e-05
6.71778e-06
5.52265e-05
6.77636e-06
5.6991e-05
6.83362e-06
5.87751e-05
6.89076e-06
6.05778e-05
6.94887e-06
6.23975e-05
7.00882e-06
6.42319e-05
7.07129e-06
6.60779e-05
7.13679e-06
6.79317e-05
7.20559e-06
6.97886e-05
7.27777e-06
7.1643e-05
7.35322e-06
7.34889e-05
7.43164e-06
7.53192e-05
7.51255e-06
7.71264e-05
7.59532e-06
7.89022e-05
7.67916e-06
8.06378e-05
7.76317e-06
8.23241e-05
7.84633e-06
8.39516e-05
7.92754e-06
8.55106e-05
8.00563e-06
8.69914e-05
8.07938e-06
8.83842e-05
8.14755e-06
8.96798e-05
8.20888e-06
9.0869e-05
8.26215e-06
9.19434e-05
8.30618e-06
9.28952e-05
8.33985e-06
9.37176e-05
8.36216e-06
9.44047e-05
8.37222e-06
9.49518e-05
8.36928e-06
9.53553e-05
8.35278e-06
9.5613e-05
8.32234e-06
9.57241e-05
8.27777e-06
9.5689e-05
8.21913e-06
9.55094e-05
8.14666e-06
9.51882e-05
8.06083e-06
9.47292e-05
7.96229e-06
9.41373e-05
7.8519e-06
9.34177e-05
7.73062e-06
9.25759e-05
7.59957e-06
9.16177e-05
7.45992e-06
9.05483e-05
7.31286e-06
8.93727e-05
7.15954e-06
8.80945e-05
7.00105e-06
8.67167e-05
6.83834e-06
8.52406e-05
6.67216e-06
8.3666e-05
6.50306e-06
8.19911e-05
6.33131e-06
8.02125e-05
6.15689e-06
7.8325e-05
5.97949e-06
7.63215e-05
5.79847e-06
7.41939e-05
5.61288e-06
7.19324e-05
5.42148e-06
6.95262e-05
5.22274e-06
6.69636e-05
5.0149e-06
6.42324e-05
4.79597e-06
6.13197e-05
4.56379e-06
5.82127e-05
4.31614e-06
5.48985e-05
4.05032e-06
5.13644e-05
3.76412e-06
4.75982e-05
3.45495e-06
4.3588e-05
3.12025e-06
3.93224e-05
2.7575e-06
3.47906e-05
2.36418e-06
2.99823e-05
2.48877e-05
1.93783e-06
1.63466e-08
5.18543e-07
6.40065e-08
1.57178e-06
1.41984e-07
2.65811e-06
2.49138e-07
3.77771e-06
3.84179e-07
4.93058e-06
5.45664e-07
6.11654e-06
7.32001e-07
7.33522e-06
9.41447e-07
8.58604e-06
1.17212e-06
9.86823e-06
1.422e-06
1.11808e-05
1.68895e-06
1.25227e-05
1.97072e-06
1.38926e-05
2.26498e-06
1.5289e-05
2.56934e-06
1.67103e-05
2.88134e-06
1.81548e-05
3.19855e-06
1.96209e-05
3.51853e-06
2.11066e-05
3.83889e-06
2.26102e-05
4.15734e-06
2.41299e-05
4.47169e-06
2.56641e-05
4.77992e-06
2.72112e-05
5.08019e-06
2.87698e-05
5.37087e-06
3.03388e-05
5.65057e-06
3.19172e-05
5.91816e-06
3.35044e-05
6.17281e-06
3.50999e-05
6.41396e-06
3.67036e-05
6.64135e-06
3.83159e-05
6.85502e-06
3.9937e-05
7.0553e-06
4.15678e-05
7.24275e-06
4.32092e-05
7.41821e-06
4.48623e-05
7.58271e-06
4.65285e-05
7.73745e-06
4.8209e-05
7.88376e-06
4.9905e-05
8.02307e-06
5.16178e-05
8.15684e-06
5.33482e-05
8.28655e-06
5.50968e-05
8.4136e-06
5.6864e-05
8.53932e-06
5.86493e-05
8.66494e-06
6.04521e-05
8.79149e-06
6.22709e-05
8.91986e-06
6.41035e-05
9.05073e-06
6.59471e-05
9.18455e-06
6.77979e-05
9.32158e-06
6.96515e-05
9.46184e-06
7.15028e-05
9.60516e-06
7.33456e-05
9.75114e-06
7.51733e-05
9.8992e-06
7.69784e-05
1.00486e-05
7.87528e-05
1.01984e-05
8.0488e-05
1.03475e-05
8.2175e-05
1.04948e-05
8.38043e-05
1.0639e-05
8.53664e-05
1.07788e-05
8.68516e-05
1.09128e-05
8.82502e-05
1.10396e-05
8.9553e-05
1.11577e-05
9.07508e-05
1.12658e-05
9.18352e-05
1.13627e-05
9.27984e-05
1.14471e-05
9.36333e-05
1.15179e-05
9.43339e-05
1.15743e-05
9.48955e-05
1.16153e-05
9.53142e-05
1.16406e-05
9.55877e-05
1.16498e-05
9.57149e-05
1.16428e-05
9.5696e-05
1.16197e-05
9.55325e-05
1.1581e-05
9.52269e-05
1.15273e-05
9.4783e-05
1.14594e-05
9.42052e-05
1.13785e-05
9.34986e-05
1.12857e-05
9.26687e-05
1.11824e-05
9.1721e-05
1.107e-05
9.06607e-05
1.095e-05
8.94927e-05
1.08236e-05
8.82209e-05
1.06922e-05
8.68481e-05
1.0557e-05
8.53758e-05
1.04187e-05
8.38042e-05
1.02781e-05
8.21317e-05
1.01356e-05
8.03551e-05
9.99099e-06
7.84695e-05
9.84409e-06
7.64684e-05
9.69418e-06
7.43438e-05
9.54022e-06
7.20864e-05
9.38081e-06
6.96856e-05
9.21428e-06
6.71302e-05
9.03865e-06
6.4408e-05
8.85172e-06
6.15066e-05
8.65109e-06
5.84133e-05
8.43419e-06
5.51154e-05
8.19829e-06
5.16003e-05
7.94069e-06
4.78558e-05
7.65858e-06
4.38701e-05
7.34913e-06
3.96319e-05
7.00954e-06
3.51302e-05
6.63704e-06
3.03548e-05
2.52958e-05
6.22889e-06
1.68721e-08
5.01671e-07
6.62207e-08
1.52243e-06
1.47186e-07
2.57714e-06
2.5877e-07
3.66612e-06
3.99829e-07
4.78952e-06
5.6907e-07
5.9473e-06
7.65047e-07
7.13924e-06
9.86168e-07
8.36492e-06
1.23069e-06
9.62371e-06
1.49673e-06
1.09148e-05
1.78227e-06
1.22372e-05
2.08518e-06
1.35897e-05
2.40323e-06
1.49709e-05
2.73409e-06
1.63794e-05
3.07539e-06
1.78135e-05
3.4247e-06
1.92715e-05
3.77961e-06
2.07517e-05
4.13771e-06
2.22521e-05
4.49667e-06
2.37709e-05
4.85425e-06
2.53065e-05
5.20832e-06
2.68571e-05
5.55692e-06
2.84212e-05
5.89828e-06
2.99974e-05
6.23085e-06
3.15846e-05
6.55335e-06
3.31819e-05
6.86472e-06
3.47885e-05
7.16422e-06
3.64041e-05
7.45139e-06
3.80287e-05
7.72606e-06
3.96623e-05
7.98836e-06
4.13055e-05
8.23868e-06
4.29589e-05
8.47766e-06
4.46234e-05
8.70617e-06
4.63e-05
8.92529e-06
4.79899e-05
9.13623e-06
4.96941e-05
9.34031e-06
5.14137e-05
9.53892e-06
5.31496e-05
9.73348e-06
5.49023e-05
9.92537e-06
5.66721e-05
1.01159e-05
5.84588e-05
1.03062e-05
6.02618e-05
1.04975e-05
6.20797e-05
1.06905e-05
6.39105e-05
1.08859e-05
6.57516e-05
1.10842e-05
6.75996e-05
1.12857e-05
6.94501e-05
1.14902e-05
7.12982e-05
1.16977e-05
7.31381e-05
1.19076e-05
7.49634e-05
1.21193e-05
7.67667e-05
1.23319e-05
7.85402e-05
1.25443e-05
8.02755e-05
1.27556e-05
8.19638e-05
1.29642e-05
8.35957e-05
1.31688e-05
8.51618e-05
1.33679e-05
8.66524e-05
1.356e-05
8.80581e-05
1.37435e-05
8.93695e-05
1.39169e-05
9.05774e-05
1.40787e-05
9.16734e-05
1.42275e-05
9.26496e-05
1.43619e-05
9.34988e-05
1.44809e-05
9.4215e-05
1.45834e-05
9.4793e-05
1.46686e-05
9.5229e-05
1.47361e-05
9.55203e-05
1.47854e-05
9.56656e-05
1.48167e-05
9.56648e-05
1.483e-05
9.55191e-05
1.4826e-05
9.52309e-05
1.48055e-05
9.48035e-05
1.47694e-05
9.42413e-05
1.4719e-05
9.3549e-05
1.46557e-05
9.2732e-05
1.45811e-05
9.17956e-05
1.44967e-05
9.07451e-05
1.44043e-05
8.95851e-05
1.43054e-05
8.83198e-05
1.42015e-05
8.6952e-05
1.40938e-05
8.54835e-05
1.39834e-05
8.39146e-05
1.38711e-05
8.22441e-05
1.37572e-05
8.0469e-05
1.36419e-05
7.85848e-05
1.35247e-05
7.65855e-05
1.34051e-05
7.44635e-05
1.32818e-05
7.22096e-05
1.31534e-05
6.9814e-05
1.30181e-05
6.72655e-05
1.28737e-05
6.45524e-05
1.27178e-05
6.16625e-05
1.25478e-05
5.85833e-05
1.23609e-05
5.53023e-05
1.21541e-05
5.1807e-05
1.19246e-05
4.80854e-05
1.16691e-05
4.41256e-05
1.13846e-05
3.99163e-05
1.1068e-05
3.54467e-05
1.07164e-05
3.07064e-05
2.56856e-05
1.03267e-05
1.72471e-08
4.84424e-07
6.78371e-08
1.47184e-06
1.51047e-07
2.49393e-06
2.66022e-07
3.55115e-06
4.11766e-07
4.64378e-06
5.87139e-07
5.77193e-06
7.90852e-07
6.93553e-06
1.02146e-06
8.13431e-06
1.27738e-06
9.36779e-06
1.55688e-06
1.06353e-05
1.85807e-06
1.1936e-05
2.17895e-06
1.32688e-05
2.5174e-06
1.46325e-05
2.8712e-06
1.60256e-05
3.23804e-06
1.74467e-05
3.61558e-06
1.8894e-05
4.00141e-06
2.03658e-05
4.39317e-06
2.18603e-05
4.78848e-06
2.33756e-05
5.18507e-06
2.49099e-05
5.58074e-06
2.64614e-05
5.97345e-06
2.80285e-05
6.36129e-06
2.96096e-05
6.74258e-06
3.12033e-05
7.11587e-06
3.28086e-05
7.47992e-06
3.44245e-05
7.83382e-06
3.60503e-05
8.17689e-06
3.76856e-05
8.50877e-06
3.93304e-05
8.82937e-06
4.09849e-05
9.1389e-06
4.26493e-05
9.43781e-06
4.43245e-05
9.72682e-06
4.6011e-05
1.00068e-05
4.77099e-05
1.02789e-05
4.9422e-05
1.05443e-05
5.11483e-05
1.08043e-05
5.28896e-05
1.10603e-05
5.46463e-05
1.13135e-05
5.64188e-05
1.15653e-05
5.8207e-05
1.18168e-05
6.00103e-05
1.20691e-05
6.18273e-05
1.23232e-05
6.36565e-05
1.25795e-05
6.54953e-05
1.28387e-05
6.73404e-05
1.31009e-05
6.91878e-05
1.33662e-05
7.10329e-05
1.36343e-05
7.28701e-05
1.39046e-05
7.4693e-05
1.41766e-05
7.64947e-05
1.44492e-05
7.82676e-05
1.47213e-05
8.00034e-05
1.49917e-05
8.16934e-05
1.5259e-05
8.33284e-05
1.55215e-05
8.48992e-05
1.57778e-05
8.63962e-05
1.6026e-05
8.78099e-05
1.62647e-05
8.91309e-05
1.64919e-05
9.03502e-05
1.67062e-05
9.14591e-05
1.69061e-05
9.24498e-05
1.709e-05
9.33149e-05
1.72568e-05
9.40482e-05
1.74054e-05
9.46444e-05
1.75351e-05
9.50993e-05
1.76451e-05
9.54102e-05
1.77353e-05
9.55754e-05
1.78056e-05
9.55945e-05
1.78563e-05
9.54684e-05
1.7888e-05
9.51991e-05
1.79017e-05
9.47899e-05
1.78984e-05
9.42445e-05
1.78796e-05
9.35678e-05
1.78468e-05
9.27648e-05
1.78018e-05
9.18406e-05
1.77463e-05
9.08006e-05
1.76822e-05
8.96493e-05
1.76112e-05
8.83908e-05
1.75349e-05
8.70282e-05
1.74549e-05
8.55635e-05
1.73722e-05
8.39973e-05
1.72878e-05
8.23285e-05
1.72022e-05
8.05546e-05
1.71155e-05
7.86716e-05
1.70274e-05
7.66737e-05
1.69371e-05
7.45537e-05
1.68435e-05
7.23032e-05
1.6745e-05
6.99125e-05
1.66398e-05
6.73708e-05
1.65255e-05
6.46667e-05
1.63996e-05
6.17884e-05
1.62592e-05
5.87237e-05
1.61014e-05
5.54601e-05
1.5923e-05
5.19854e-05
1.57208e-05
4.82876e-05
1.54914e-05
4.4355e-05
1.52315e-05
4.01762e-05
1.49378e-05
3.57404e-05
1.4607e-05
3.10373e-05
2.60567e-05
1.42358e-05
1.74843e-08
4.6694e-07
6.89043e-08
1.42042e-06
1.53672e-07
2.40917e-06
2.71074e-07
3.43375e-06
4.20265e-07
4.49459e-06
6.00258e-07
5.59194e-06
8.0992e-07
6.72587e-06
1.04797e-06
7.89626e-06
1.31298e-06
9.10279e-06
1.60336e-06
1.03449e-05
1.91739e-06
1.1622e-05
2.2532e-06
1.2933e-05
2.6088e-06
1.42769e-05
2.98209e-06
1.56523e-05
3.37086e-06
1.70579e-05
3.77283e-06
1.8492e-05
4.18569e-06
1.9953e-05
4.60706e-06
2.14389e-05
5.03462e-06
2.2948e-05
5.46606e-06
2.44785e-05
5.89913e-06
2.60283e-05
6.33172e-06
2.75959e-05
6.76183e-06
2.91795e-05
7.18767e-06
3.07775e-05
7.60761e-06
3.23887e-05
8.02029e-06
3.40118e-05
8.42458e-06
3.5646e-05
8.81964e-06
3.72906e-05
9.20489e-06
3.89452e-05
9.58006e-06
4.06097e-05
9.94514e-06
4.22843e-05
1.03004e-05
4.39692e-05
1.06464e-05
4.5665e-05
1.09838e-05
4.73724e-05
1.13137e-05
4.90922e-05
1.1637e-05
5.0825e-05
1.1955e-05
5.25715e-05
1.2269e-05
5.43324e-05
1.25802e-05
5.61077e-05
1.28898e-05
5.78974e-05
1.31991e-05
5.97009e-05
1.35092e-05
6.15173e-05
1.38207e-05
6.33449e-05
1.41346e-05
6.51814e-05
1.44512e-05
6.70238e-05
1.47708e-05
6.88683e-05
1.50934e-05
7.07103e-05
1.54187e-05
7.25448e-05
1.57462e-05
7.43655e-05
1.60753e-05
7.61657e-05
1.64048e-05
7.79381e-05
1.67337e-05
7.96745e-05