/*--------------------------------*- C++ -*----------------------------------*\
| =========                 |                                                 |
| \\      /  F ield         | OpenFOAM: The Open Source CFD Toolbox           |
|  \\    /   O peration     | Version:  2406                                  |
|   \\  /    A nd           | Website:  www.openfoam.com                      |
|    \\/     M anipulation  |                                                 |
\*---------------------------------------------------------------------------*/
FoamFile
{
    version     2.0;
    format      ascii;
    arch        "LSB;label=32;scalar=64";
    class       volVectorField;
    location    "20";
    object      U;
}
// * * * * * * * * * * * * * * * * * * * * * * * * * * * * * * * * * * * * * //

dimensions      [0 1 -1 0 0 0 0];

internalField   nonuniform List<vector> 
40000
(
(3.83926e-06 0.00620436 0)
(2.1668e-05 0.0183321 0)
(5.79183e-05 0.030269 0)
(0.000107599 0.0420045 0)
(0.000165807 0.0535273 0)
(0.000228335 0.0648259 0)
(0.000290921 0.0758885 0)
(0.000349083 0.0867038 0)
(0.000398213 0.0972605 0)
(0.00043366 0.107548 0)
(0.000450784 0.117556 0)
(0.000445009 0.127278 0)
(0.000411882 0.136704 0)
(0.000347133 0.14583 0)
(0.000246736 0.154652 0)
(0.000106962 0.163168 0)
(-7.55593e-05 0.171379 0)
(-0.000303795 0.179287 0)
(-0.000580267 0.186898 0)
(-0.000907005 0.194219 0)
(-0.00128553 0.20126 0)
(-0.00171682 0.208033 0)
(-0.00220132 0.214551 0)
(-0.00273892 0.220831 0)
(-0.003329 0.22689 0)
(-0.00397041 0.232745 0)
(-0.00466155 0.238417 0)
(-0.00540037 0.243924 0)
(-0.00618444 0.249286 0)
(-0.00701101 0.254521 0)
(-0.00787707 0.259646 0)
(-0.00877938 0.264677 0)
(-0.00971459 0.269627 0)
(-0.0106792 0.274509 0)
(-0.0116698 0.279331 0)
(-0.012683 0.284098 0)
(-0.0137152 0.288812 0)
(-0.0147632 0.293473 0)
(-0.0158238 0.298076 0)
(-0.0168941 0.302614 0)
(-0.0179709 0.307075 0)
(-0.0190517 0.311445 0)
(-0.0201337 0.315707 0)
(-0.0212144 0.31984 0)
(-0.0222915 0.323823 0)
(-0.0233625 0.327631 0)
(-0.0244253 0.331236 0)
(-0.0254777 0.334612 0)
(-0.0265175 0.33773 0)
(-0.0275427 0.34056 0)
(-0.0285513 0.343072 0)
(-0.0295414 0.345237 0)
(-0.0305111 0.347026 0)
(-0.0314588 0.348411 0)
(-0.0323828 0.349367 0)
(-0.0332819 0.349869 0)
(-0.0341547 0.349897 0)
(-0.0350005 0.349432 0)
(-0.0358186 0.348459 0)
(-0.0366087 0.346969 0)
(-0.0373708 0.344954 0)
(-0.0381054 0.342415 0)
(-0.0388133 0.339353 0)
(-0.0394958 0.335777 0)
(-0.0401546 0.331702 0)
(-0.0407917 0.327145 0)
(-0.0414096 0.32213 0)
(-0.0420111 0.316684 0)
(-0.0425994 0.310837 0)
(-0.0431777 0.304624 0)
(-0.0437496 0.29808 0)
(-0.0443187 0.291241 0)
(-0.0448886 0.284146 0)
(-0.0454628 0.27683 0)
(-0.0460449 0.269327 0)
(-0.046638 0.261669 0)
(-0.0472449 0.253883 0)
(-0.0478682 0.245993 0)
(-0.0485101 0.238017 0)
(-0.0491723 0.229968 0)
(-0.049856 0.221855 0)
(-0.0505623 0.213679 0)
(-0.0512915 0.205439 0)
(-0.0520437 0.197128 0)
(-0.0528189 0.188734 0)
(-0.0536165 0.180244 0)
(-0.0544359 0.171641 0)
(-0.0552765 0.162909 0)
(-0.0561375 0.154027 0)
(-0.0570181 0.144979 0)
(-0.0579177 0.135747 0)
(-0.0588358 0.126313 0)
(-0.0597721 0.116665 0)
(-0.0607263 0.10679 0)
(-0.0616987 0.0966781 0)
(-0.0626893 0.0863214 0)
(-0.0636988 0.0757152 0)
(-0.0647277 0.0648563 0)
(-0.0657769 0.0537439 0)
(-0.0668473 0.042379 0)
(5.23134e-06 0.00613956 0)
(3.06893e-05 0.0181588 0)
(8.42308e-05 0.0300077 0)
(0.000160335 0.0416761 0)
(0.000253705 0.053153 0)
(0.000360092 0.064427 0)
(0.000475209 0.0754861 0)
(0.000594481 0.0863186 0)
(0.000713162 0.0969125 0)
(0.000826423 0.107256 0)
(0.000929407 0.11734 0)
(0.00101728 0.127153 0)
(0.00108529 0.136686 0)
(0.00112883 0.145934 0)
(0.00114351 0.15489 0)
(0.0011252 0.16355 0)
(0.00107009 0.171913 0)
(0.000974785 0.17998 0)
(0.000836296 0.187753 0)
(0.000652134 0.195238 0)
(0.000420322 0.202443 0)
(0.000139432 0.209377 0)
(-0.000191401 0.216053 0)
(-0.000572472 0.222485 0)
(-0.00100352 0.228687 0)
(-0.00148371 0.234678 0)
(-0.00201173 0.240474 0)
(-0.00258575 0.246094 0)
(-0.00320352 0.251556 0)
(-0.00386243 0.256879 0)
(-0.00455952 0.262079 0)
(-0.00529162 0.267173 0)
(-0.00605535 0.272173 0)
(-0.00684724 0.277092 0)
(-0.00766375 0.281939 0)
(-0.00850135 0.28672 0)
(-0.0093566 0.291438 0)
(-0.0102261 0.296093 0)
(-0.0111067 0.300682 0)
(-0.0119953 0.305196 0)
(-0.0128891 0.309627 0)
(-0.0137852 0.313961 0)
(-0.0146813 0.31818 0)
(-0.015575 0.322266 0)
(-0.0164642 0.326197 0)
(-0.0173468 0.329949 0)
(-0.0182209 0.333495 0)
(-0.0190849 0.336809 0)
(-0.019937 0.339861 0)
(-0.0207758 0.342623 0)
(-0.0215999 0.345066 0)
(-0.0224079 0.347159 0)
(-0.0231988 0.348876 0)
(-0.0239713 0.350188 0)
(-0.0247248 0.35107 0)
(-0.0254584 0.351499 0)
(-0.0261717 0.351453 0)
(-0.0268644 0.350916 0)
(-0.0275364 0.349873 0)
(-0.028188 0.348314 0)
(-0.0288198 0.346234 0)
(-0.0294325 0.343632 0)
(-0.0300272 0.340512 0)
(-0.0306055 0.336882 0)
(-0.031169 0.332757 0)
(-0.0317197 0.328156 0)
(-0.0322599 0.323102 0)
(-0.032792 0.317622 0)
(-0.0333187 0.311748 0)
(-0.0338427 0.305513 0)
(-0.0343668 0.298952 0)
(-0.0348937 0.292102 0)
(-0.0354262 0.285001 0)
(-0.0359669 0.277683 0)
(-0.0365182 0.270182 0)
(-0.0370823 0.262529 0)
(-0.0376611 0.254751 0)
(-0.0382562 0.246872 0)
(-0.038869 0.238908 0)
(-0.0395004 0.230872 0)
(-0.0401512 0.222772 0)
(-0.0408219 0.21461 0)
(-0.0415126 0.206383 0)
(-0.0422233 0.198084 0)
(-0.0429539 0.189702 0)
(-0.0437042 0.181222 0)
(-0.0444739 0.172629 0)
(-0.0452628 0.163904 0)
(-0.0460708 0.15503 0)
(-0.0468977 0.145988 0)
(-0.0477438 0.136761 0)
(-0.0486092 0.127333 0)
(-0.0494946 0.117689 0)
(-0.0504005 0.107819 0)
(-0.051328 0.0977119 0)
(-0.0522779 0.0873607 0)
(-0.0532516 0.0767604 0)
(-0.0542505 0.0659081 0)
(-0.055276 0.0548031 0)
(-0.0563297 0.0434463 0)
(6.52204e-06 0.00605498 0)
(3.90975e-05 0.017927 0)
(0.000108824 0.02965 0)
(0.000209737 0.0412143 0)
(0.000336225 0.0526092 0)
(0.000484055 0.0638234 0)
(0.000648967 0.0748448 0)
(0.000826357 0.0856615 0)
(0.0010114 0.0962611 0)
(0.00119915 0.106631 0)
(0.0013846 0.116761 0)
(0.00156271 0.126639 0)
(0.00172848 0.136255 0)
(0.00187704 0.145601 0)
(0.00200366 0.154669 0)
(0.00210385 0.163454 0)
(0.00217343 0.171952 0)
(0.00220854 0.180163 0)
(0.0022058 0.188086 0)
(0.00216223 0.195725 0)
(0.00207541 0.203085 0)
(0.00194346 0.210175 0)
(0.00176506 0.217003 0)
(0.00153949 0.223583 0)
(0.00126662 0.229928 0)
(0.000946907 0.236052 0)
(0.000581361 0.241973 0)
(0.00017152 0.247708 0)
(-0.000280594 0.253274 0)
(-0.000772535 0.258688 0)
(-0.0013015 0.263967 0)
(-0.00186438 0.269126 0)
(-0.00245785 0.27418 0)
(-0.00307843 0.279141 0)
(-0.00372258 0.284017 0)
(-0.00438674 0.288816 0)
(-0.00506738 0.293542 0)
(-0.00576112 0.298195 0)
(-0.0064647 0.302773 0)
(-0.00717506 0.307269 0)
(-0.00788934 0.311675 0)
(-0.00860492 0.315977 0)
(-0.00931941 0.320159 0)
(-0.0100306 0.324204 0)
(-0.0107367 0.32809 0)
(-0.0114358 0.331793 0)
(-0.0121264 0.335288 0)
(-0.0128073 0.338548 0)
(-0.0134772 0.341546 0)
(-0.0141352 0.344252 0)
(-0.0147803 0.346637 0)
(-0.0154118 0.348673 0)
(-0.0160293 0.350331 0)
(-0.0166322 0.351586 0)
(-0.0172204 0.352411 0)
(-0.0177938 0.352783 0)
(-0.0183524 0.352682 0)
(-0.0188967 0.352092 0)
(-0.0194271 0.350998 0)
(-0.0199444 0.349391 0)
(-0.0204495 0.347265 0)
(-0.0209435 0.34462 0)
(-0.0214279 0.341461 0)
(-0.0219041 0.337796 0)
(-0.022374 0.333641 0)
(-0.0228395 0.329013 0)
(-0.0233024 0.323936 0)
(-0.023765 0.318438 0)
(-0.0242294 0.31255 0)
(-0.0246977 0.306305 0)
(-0.025172 0.299738 0)
(-0.0256542 0.292886 0)
(-0.0261463 0.285785 0)
(-0.0266498 0.278471 0)
(-0.0271664 0.270976 0)
(-0.0276971 0.263331 0)
(-0.0282431 0.255562 0)
(-0.0288051 0.247693 0)
(-0.0293837 0.23974 0)
(-0.0299793 0.231715 0)
(-0.030592 0.223626 0)
(-0.031222 0.215474 0)
(-0.0318691 0.207257 0)
(-0.0325333 0.198967 0)
(-0.0332146 0.190594 0)
(-0.033913 0.182122 0)
(-0.0346287 0.173536 0)
(-0.0353618 0.164819 0)
(-0.0361129 0.155951 0)
(-0.0368825 0.146916 0)
(-0.0376717 0.137696 0)
(-0.0384813 0.128276 0)
(-0.0393128 0.118641 0)
(-0.0401676 0.108779 0)
(-0.0410475 0.0986823 0)
(-0.0419542 0.088342 0)
(-0.0428898 0.0777538 0)
(-0.0438563 0.0669147 0)
(-0.044856 0.0558241 0)
(-0.0458911 0.0444829 0)
(7.70593e-06 0.00595276 0)
(4.68568e-05 0.017643 0)
(0.000131593 0.0292059 0)
(0.000255585 0.0406324 0)
(0.000412989 0.051912 0)
(0.000599636 0.0630337 0)
(0.000811351 0.0739856 0)
(0.00104356 0.0847555 0)
(0.00129141 0.0953307 0)
(0.0015499 0.105699 0)
(0.00181394 0.115847 0)
(0.00207834 0.125764 0)
(0.00233794 0.135437 0)
(0.00258761 0.144859 0)
(0.00282237 0.154018 0)
(0.00303741 0.162909 0)
(0.00322818 0.171525 0)
(0.00339046 0.179864 0)
(0.00352043 0.187923 0)
(0.0036147 0.195705 0)
(0.00367037 0.203211 0)
(0.00368511 0.210448 0)
(0.00365715 0.217424 0)
(0.00358531 0.224148 0)
(0.00346905 0.230632 0)
(0.00330841 0.23689 0)
(0.00310405 0.242936 0)
(0.00285718 0.248787 0)
(0.00256953 0.254458 0)
(0.00224334 0.259967 0)
(0.00188122 0.265328 0)
(0.00148615 0.270558 0)
(0.00106136 0.27567 0)
(0.000610289 0.280676 0)
(0.00013647 0.285587 0)
(-0.000356522 0.290409 0)
(-0.000865148 0.295147 0)
(-0.00138597 0.299803 0)
(-0.00191572 0.304375 0)
(-0.0024513 0.308858 0)
(-0.00298989 0.313243 0)
(-0.00352889 0.317519 0)
(-0.00406602 0.32167 0)
(-0.00459925 0.32568 0)
(-0.00512684 0.329527 0)
(-0.0056473 0.333189 0)
(-0.00615942 0.336641 0)
(-0.00666223 0.339857 0)
(-0.00715496 0.342809 0)
(-0.00763708 0.34547 0)
(-0.00810823 0.34781 0)
(-0.00856825 0.349801 0)
(-0.00901717 0.351415 0)
(-0.00945516 0.352626 0)
(-0.00988259 0.353409 0)
(-0.0103 0.353742 0)
(-0.010708 0.353603 0)
(-0.0111076 0.352977 0)
(-0.0114997 0.35185 0)
(-0.0118855 0.350212 0)
(-0.0122664 0.348059 0)
(-0.0126438 0.345391 0)
(-0.0130193 0.34221 0)
(-0.0133946 0.338528 0)
(-0.0137714 0.334358 0)
(-0.0141515 0.32972 0)
(-0.0145366 0.324636 0)
(-0.0149286 0.319134 0)
(-0.015329 0.313244 0)
(-0.0157395 0.307 0)
(-0.0161613 0.300437 0)
(-0.0165958 0.29359 0)
(-0.017044 0.286497 0)
(-0.0175066 0.279191 0)
(-0.0179843 0.271705 0)
(-0.0184775 0.26407 0)
(-0.0189863 0.256311 0)
(-0.0195108 0.248451 0)
(-0.0200507 0.240508 0)
(-0.0206059 0.232492 0)
(-0.021176 0.224411 0)
(-0.0217609 0.216267 0)
(-0.0223603 0.208057 0)
(-0.0229741 0.199774 0)
(-0.0236023 0.191407 0)
(-0.0242452 0.182941 0)
(-0.0249034 0.174362 0)
(-0.0255776 0.165651 0)
(-0.0262688 0.156791 0)
(-0.0269783 0.147764 0)
(-0.0277078 0.138553 0)
(-0.0284591 0.129142 0)
(-0.0292343 0.119519 0)
(-0.0300357 0.109671 0)
(-0.0308657 0.0995885 0)
(-0.0317271 0.0892646 0)
(-0.0326224 0.0786945 0)
(-0.0335546 0.0678751 0)
(-0.0345265 0.0568059 0)
(-0.035541 0.0454876 0)
(8.78027e-06 0.00583503 0)
(5.39453e-05 0.0173128 0)
(0.000152466 0.0286851 0)
(0.00029773 0.0399432 0)
(0.000483731 0.0510774 0)
(0.000706416 0.0620768 0)
(0.000961744 0.0729297 0)
(0.00124522 0.0836239 0)
(0.00155203 0.0941465 0)
(0.00187719 0.104484 0)
(0.00221555 0.114625 0)
(0.00256187 0.124555 0)
(0.00291084 0.134263 0)
(0.00325719 0.143736 0)
(0.00359569 0.152966 0)
(0.00392129 0.161943 0)
(0.00422913 0.170659 0)
(0.00451463 0.17911 0)
(0.0047736 0.187292 0)
(0.00500221 0.195204 0)
(0.00519716 0.202846 0)
(0.00535563 0.210223 0)
(0.0054754 0.217339 0)
(0.00555484 0.224203 0)
(0.00559295 0.230823 0)
(0.00558935 0.237213 0)
(0.00554429 0.243385 0)
(0.00545862 0.249352 0)
(0.00533376 0.255131 0)
(0.00517164 0.260737 0)
(0.00497467 0.266184 0)
(0.00474563 0.271488 0)
(0.00448763 0.276663 0)
(0.00420402 0.28172 0)
(0.00389828 0.28667 0)
(0.00357397 0.29152 0)
(0.00323464 0.296276 0)
(0.00288374 0.300941 0)
(0.00252459 0.305512 0)
(0.00216026 0.309987 0)
(0.00179361 0.314357 0)
(0.00142718 0.318612 0)
(0.00106321 0.322738 0)
(0.000703598 0.326719 0)
(0.000349941 0.330534 0)
(3.49815e-06 0.334162 0)
(-0.000334783 0.337579 0)
(-0.000664248 0.34076 0)
(-0.000984518 0.343676 0)
(-0.00129548 0.346301 0)
(-0.00159724 0.348607 0)
(-0.00189016 0.350565 0)
(-0.00217478 0.352148 0)
(-0.00245184 0.353329 0)
(-0.00272225 0.354085 0)
(-0.00298712 0.354393 0)
(-0.00324766 0.354232 0)
(-0.00350526 0.353587 0)
(-0.00376141 0.352443 0)
(-0.00401773 0.350792 0)
(-0.0042759 0.348628 0)
(-0.00453766 0.345952 0)
(-0.00480481 0.342767 0)
(-0.0050791 0.339084 0)
(-0.00536229 0.334915 0)
(-0.00565604 0.330281 0)
(-0.00596188 0.325203 0)
(-0.00628124 0.319709 0)
(-0.00661532 0.31383 0)
(-0.00696512 0.307597 0)
(-0.00733143 0.301046 0)
(-0.00771474 0.294213 0)
(-0.00811531 0.287132 0)
(-0.00853315 0.279838 0)
(-0.00896804 0.272365 0)
(-0.00941952 0.264741 0)
(-0.00988699 0.256993 0)
(-0.0103697 0.249143 0)
(-0.0108669 0.241208 0)
(-0.0113778 0.233199 0)
(-0.0119017 0.225125 0)
(-0.0124379 0.216986 0)
(-0.0129862 0.208781 0)
(-0.0135463 0.200502 0)
(-0.0141184 0.192139 0)
(-0.0147031 0.183678 0)
(-0.0153013 0.175104 0)
(-0.015914 0.1664 0)
(-0.0165431 0.157547 0)
(-0.0171904 0.148529 0)
(-0.0178582 0.139329 0)
(-0.0185491 0.129932 0)
(-0.0192661 0.120324 0)
(-0.0200121 0.110493 0)
(-0.0207905 0.10043 0)
(-0.0216046 0.0901282 0)
(-0.0224578 0.079582 0)
(-0.0233538 0.0687888 0)
(-0.024296 0.0577476 0)
(-0.0252879 0.0464593 0)
(9.744e-06 0.00570388 0)
(6.03517e-05 0.0169424 0)
(0.000171404 0.0280971 0)
(0.000336081 0.0391598 0)
(0.000548284 0.0501214 0)
(0.000804123 0.0609713 0)
(0.00109973 0.0716983 0)
(0.00143074 0.08229 0)
(0.00179245 0.0927335 0)
(0.00217992 0.103016 0)
(0.00258802 0.113123 0)
(0.00301151 0.123042 0)
(0.00344501 0.13276 0)
(0.00388313 0.142264 0)
(0.0043205 0.151543 0)
(0.00475183 0.160586 0)
(0.00517203 0.169385 0)
(0.00557621 0.177931 0)
(0.00595981 0.186221 0)
(0.00631864 0.19425 0)
(0.00664897 0.202018 0)
(0.00694755 0.209525 0)
(0.00721169 0.216774 0)
(0.00743931 0.223772 0)
(0.00762893 0.230526 0)
(0.00777974 0.237045 0)
(0.00789155 0.243341 0)
(0.0079648 0.249426 0)
(0.00800056 0.255314 0)
(0.00800042 0.26102 0)
(0.00796652 0.266557 0)
(0.00790142 0.27194 0)
(0.00780804 0.277181 0)
(0.0076896 0.282294 0)
(0.0075495 0.287289 0)
(0.00739126 0.292172 0)
(0.0072184 0.296952 0)
(0.00703438 0.30163 0)
(0.00684253 0.306206 0)
(0.00664596 0.310678 0)
(0.00644752 0.315039 0)
(0.00624973 0.31928 0)
(0.0060548 0.323387 0)
(0.00586456 0.327344 0)
(0.00568047 0.331134 0)
(0.00550361 0.334736 0)
(0.00533471 0.338125 0)
(0.00517414 0.341278 0)
(0.00502194 0.344168 0)
(0.00487786 0.346767 0)
(0.00474134 0.349048 0)
(0.00461159 0.350984 0)
(0.00448757 0.352547 0)
(0.00436801 0.353712 0)
(0.00425148 0.354454 0)
(0.00413639 0.354751 0)
(0.00402096 0.354582 0)
(0.00390336 0.353932 0)
(0.00378162 0.352787 0)
(0.00365374 0.351138 0)
(0.00351769 0.348979 0)
(0.00337144 0.346311 0)
(0.00321302 0.343138 0)
(0.00304056 0.339468 0)
(0.0028523 0.335315 0)
(0.00264669 0.330698 0)
(0.00242236 0.325639 0)
(0.00217822 0.320165 0)
(0.00191346 0.314306 0)
(0.00162758 0.308094 0)
(0.00132038 0.301563 0)
(0.000992005 0.29475 0)
(0.000642928 0.287687 0)
(0.000273907 0.280411 0)
(-0.000114114 0.272953 0)
(-0.000519935 0.265343 0)
(-0.000942156 0.257606 0)
(-0.00137939 0.249765 0)
(-0.00183024 0.241837 0)
(-0.00229342 0.233835 0)
(-0.00276777 0.225765 0)
(-0.00325243 0.217629 0)
(-0.00374683 0.209427 0)
(-0.00425082 0.201151 0)
(-0.00476464 0.19279 0)
(-0.00528904 0.184333 0)
(-0.00582521 0.175764 0)
(-0.00637485 0.167065 0)
(-0.0069401 0.158221 0)
(-0.00752356 0.149214 0)
(-0.00812819 0.140027 0)
(-0.00875729 0.130645 0)
(-0.00941437 0.121055 0)
(-0.0101035 0.111246 0)
(-0.0108287 0.101208 0)
(-0.0115939 0.0909325 0)
(-0.0124033 0.080416 0)
(-0.0132613 0.0696551 0)
(-0.014172 0.0586486 0)
(-0.0151396 0.0473972 0)
(1.05976e-05 0.00556131 0)
(6.60748e-05 0.0165375 0)
(0.000188395 0.0274511 0)
(0.000370605 0.0382947 0)
(0.000606575 0.0490595 0)
(0.000892619 0.0597357 0)
(0.00122509 0.0703121 0)
(0.00159979 0.0807768 0)
(0.00201216 0.0911169 0)
(0.00245738 0.101319 0)
(0.00293042 0.111369 0)
(0.00342604 0.121254 0)
(0.00393889 0.130959 0)
(0.00446351 0.140472 0)
(0.00499443 0.149779 0)
(0.00552621 0.158869 0)
(0.00605355 0.167732 0)
(0.00657131 0.176358 0)
(0.00707462 0.184741 0)
(0.00755895 0.192874 0)
(0.00802018 0.200755 0)
(0.00845463 0.208382 0)
(0.00885918 0.215756 0)
(0.00923127 0.222882 0)
(0.00956898 0.229764 0)
(0.00987101 0.23641 0)
(0.0101367 0.242829 0)
(0.0103661 0.249031 0)
(0.0105599 0.25503 0)
(0.0107192 0.260838 0)
(0.010846 0.266468 0)
(0.0109424 0.271933 0)
(0.0110112 0.277247 0)
(0.0110555 0.28242 0)
(0.0110784 0.287464 0)
(0.0110835 0.292388 0)
(0.0110742 0.297196 0)
(0.011054 0.301893 0)
(0.0110262 0.306481 0)
(0.0109939 0.310956 0)
(0.01096 0.315313 0)
(0.010927 0.319545 0)
(0.0108971 0.323638 0)
(0.0108721 0.32758 0)
(0.0108534 0.331351 0)
(0.0108419 0.334932 0)
(0.0108381 0.338301 0)
(0.0108423 0.341434 0)
(0.010854 0.344305 0)
(0.0108729 0.346887 0)
(0.0108979 0.349154 0)
(0.0109277 0.351078 0)
(0.010961 0.352632 0)
(0.0109961 0.353791 0)
(0.0110308 0.354531 0)
(0.0110633 0.354829 0)
(0.0110912 0.354666 0)
(0.0111123 0.354025 0)
(0.0111241 0.352893 0)
(0.0111243 0.351259 0)
(0.0111105 0.34912 0)
(0.0110803 0.346474 0)
(0.0110317 0.343325 0)
(0.0109627 0.339682 0)
(0.0108713 0.335558 0)
(0.0107563 0.330971 0)
(0.0106163 0.325943 0)
(0.0104506 0.3205 0)
(0.0102586 0.314671 0)
(0.0100403 0.308489 0)
(0.00979615 0.301986 0)
(0.00952675 0.295198 0)
(0.00923325 0.28816 0)
(0.0089171 0.280905 0)
(0.00857996 0.273465 0)
(0.00822375 0.26587 0)
(0.00785051 0.258146 0)
(0.00746228 0.250315 0)
(0.00706104 0.242394 0)
(0.0066486 0.234396 0)
(0.00622648 0.22633 0)
(0.00579586 0.218196 0)
(0.00535747 0.209995 0)
(0.00491153 0.20172 0)
(0.00445772 0.193361 0)
(0.00399512 0.184906 0)
(0.00352221 0.176341 0)
(0.00303691 0.167649 0)
(0.00253656 0.158814 0)
(0.002018 0.149818 0)
(0.0014776 0.140646 0)
(0.000911347 0.131283 0)
(0.000315434 0.121715 0)
(-0.000315601 0.111931 0)
(-0.000986525 0.101921 0)
(-0.00170131 0.0916778 0)
(-0.0024654 0.0811965 0)
(-0.00328375 0.0704737 0)
(-0.00416127 0.0595082 0)
(-0.0051028 0.0483004 0)
(1.13429e-05 0.00540922 0)
(7.11213e-05 0.0161037 0)
(0.000203454 0.0267561 0)
(0.000401315 0.0373599 0)
(0.00065861 0.0479069 0)
(0.000971886 0.0583877 0)
(0.00133775 0.0687916 0)
(0.00175221 0.0791069 0)
(0.00221092 0.0893211 0)
(0.00270921 0.0994206 0)
(0.00324218 0.109392 0)
(0.0038047 0.11922 0)
(0.00439145 0.128891 0)
(0.00499699 0.138391 0)
(0.00561581 0.147707 0)
(0.00624236 0.156825 0)
(0.0068712 0.165733 0)
(0.00749698 0.174421 0)
(0.00811459 0.182881 0)
(0.00871917 0.191104 0)
(0.00930626 0.199086 0)
(0.00987179 0.206823 0)
(0.0104122 0.214314 0)
(0.0109245 0.22156 0)
(0.0114063 0.228564 0)
(0.0118559 0.235333 0)
(0.012272 0.241872 0)
(0.0126543 0.248192 0)
(0.013003 0.254301 0)
(0.013319 0.260213 0)
(0.0136036 0.265938 0)
(0.0138589 0.27149 0)
(0.0140872 0.27688 0)
(0.0142914 0.282119 0)
(0.0144747 0.287219 0)
(0.0146403 0.292187 0)
(0.0147916 0.29703 0)
(0.0149321 0.301753 0)
(0.0150651 0.306357 0)
(0.0151936 0.310841 0)
(0.0153207 0.315201 0)
(0.0154488 0.319429 0)
(0.0155801 0.323515 0)
(0.0157164 0.327446 0)
(0.015859 0.331204 0)
(0.0160088 0.334772 0)
(0.0161661 0.338127 0)
(0.016331 0.341247 0)
(0.0165029 0.344107 0)
(0.016681 0.34668 0)
(0.016864 0.34894 0)
(0.0170503 0.350861 0)
(0.0172381 0.352417 0)
(0.0174251 0.35358 0)
(0.0176091 0.354329 0)
(0.0177874 0.35464 0)
(0.0179574 0.354494 0)
(0.0181164 0.353875 0)
(0.0182614 0.352767 0)
(0.0183898 0.351163 0)
(0.0184989 0.349056 0)
(0.0185861 0.346445 0)
(0.018649 0.343334 0)
(0.0186854 0.33973 0)
(0.0186936 0.335647 0)
(0.0186721 0.331101 0)
(0.0186198 0.326114 0)
(0.0185361 0.320712 0)
(0.0184208 0.314923 0)
(0.0182743 0.308778 0)
(0.0180973 0.302311 0)
(0.0178911 0.295556 0)
(0.0176575 0.288546 0)
(0.0173984 0.281316 0)
(0.0171162 0.273898 0)
(0.0168134 0.266321 0)
(0.0164928 0.258611 0)
(0.0161569 0.25079 0)
(0.0158083 0.242877 0)
(0.0154493 0.234883 0)
(0.0150818 0.226819 0)
(0.0147072 0.218686 0)
(0.0143266 0.210485 0)
(0.0139402 0.20221 0)
(0.0135476 0.193852 0)
(0.0131478 0.185399 0)
(0.012739 0.176838 0)
(0.0123187 0.168152 0)
(0.011884 0.159327 0)
(0.0114309 0.150344 0)
(0.0109555 0.141189 0)
(0.0104529 0.131847 0)
(0.00991841 0.122304 0)
(0.00934638 0.112548 0)
(0.00873133 0.102571 0)
(0.00806795 0.0923645 0)
(0.00735045 0.0819236 0)
(0.00657313 0.0712446 0)
(0.00573037 0.0603261 0)
(0.00481664 0.0491682 0)
(1.19827e-05 0.00524943 0)
(7.55051e-05 0.0156461 0)
(0.000216612 0.0260206 0)
(0.000428268 0.036367 0)
(0.000704461 0.0466779 0)
(0.00104201 0.0569444 0)
(0.00143778 0.0671562 0)
(0.00188808 0.0773023 0)
(0.00238874 0.08737 0)
(0.00293534 0.0973463 0)
(0.00352313 0.107217 0)
(0.00414715 0.116968 0)
(0.00480217 0.126585 0)
(0.00548283 0.136052 0)
(0.0061836 0.145356 0)
(0.00689894 0.154482 0)
(0.00762327 0.163419 0)
(0.00835112 0.172152 0)
(0.00907716 0.180673 0)
(0.00979629 0.188972 0)
(0.0105037 0.197042 0)
(0.011195 0.204877 0)
(0.0118663 0.212474 0)
(0.012514 0.219833 0)
(0.0131354 0.226953 0)
(0.0137282 0.23384 0)
(0.0142908 0.240497 0)
(0.0148224 0.246931 0)
(0.0153225 0.253152 0)
(0.0157918 0.259168 0)
(0.0162312 0.264991 0)
(0.0166423 0.270632 0)
(0.0170273 0.276102 0)
(0.0173887 0.281412 0)
(0.0177294 0.286572 0)
(0.0180526 0.29159 0)
(0.0183615 0.296474 0)
(0.0186596 0.301228 0)
(0.0189501 0.305855 0)
(0.0192361 0.310354 0)
(0.0195206 0.314722 0)
(0.0198062 0.318953 0)
(0.0200949 0.323038 0)
(0.0203887 0.326964 0)
(0.0206888 0.330716 0)
(0.020996 0.334275 0)
(0.0213106 0.337623 0)
(0.0216325 0.340737 0)
(0.0219609 0.343591 0)
(0.0222948 0.346163 0)
(0.0226327 0.348425 0)
(0.0229725 0.350351 0)
(0.0233122 0.351916 0)
(0.0236491 0.353094 0)
(0.0239804 0.353861 0)
(0.0243032 0.354195 0)
(0.0246144 0.354077 0)
(0.0249109 0.353489 0)
(0.0251893 0.352419 0)
(0.0254466 0.350854 0)
(0.0256797 0.348791 0)
(0.0258858 0.346227 0)
(0.0260623 0.343165 0)
(0.0262069 0.339612 0)
(0.0263177 0.33558 0)
(0.0263931 0.331087 0)
(0.0264322 0.326152 0)
(0.0264346 0.3208 0)
(0.0264002 0.315059 0)
(0.0263298 0.30896 0)
(0.0262246 0.302535 0)
(0.0260861 0.295818 0)
(0.0259167 0.288843 0)
(0.025719 0.281643 0)
(0.0254958 0.27425 0)
(0.0252504 0.266693 0)
(0.0249859 0.258998 0)
(0.0247056 0.251189 0)
(0.0244126 0.243283 0)
(0.0241095 0.235295 0)
(0.0237988 0.227232 0)
(0.0234821 0.2191 0)
(0.0231607 0.210898 0)
(0.0228349 0.202622 0)
(0.0225044 0.194264 0)
(0.022168 0.185813 0)
(0.0218237 0.177255 0)
(0.0214689 0.168577 0)
(0.0210999 0.159762 0)
(0.0207127 0.150794 0)
(0.0203024 0.141657 0)
(0.0198638 0.132338 0)
(0.0193914 0.122822 0)
(0.018879 0.113099 0)
(0.0183204 0.103159 0)
(0.0177094 0.0929933 0)
(0.0170397 0.0825976 0)
(0.0163047 0.0719677 0)
(0.0154981 0.0611018 0)
(0.0146138 0.0499999 0)
(1.25209e-05 0.00508361 0)
(7.92462e-05 0.0151696 0)
(0.000227921 0.0252525 0)
(0.000451552 0.035327 0)
(0.00074426 0.0453862 0)
(0.00110315 0.0554221 0)
(0.00152541 0.0654248 0)
(0.0020076 0.0753837 0)
(0.00254584 0.0852867 0)
(0.00313594 0.0951209 0)
(0.0037734 0.104872 0)
(0.00445343 0.114527 0)
(0.00517097 0.124069 0)
(0.00592077 0.133484 0)
(0.00669737 0.142758 0)
(0.00749524 0.151874 0)
(0.00830877 0.16082 0)
(0.0091324 0.169582 0)
(0.00996064 0.178148 0)
(0.0107882 0.186508 0)
(0.01161 0.194652 0)
(0.0124213 0.202573 0)
(0.0132178 0.210267 0)
(0.0139958 0.217729 0)
(0.0147517 0.224958 0)
(0.0154831 0.231957 0)
(0.0161878 0.238727 0)
(0.0168644 0.245274 0)
(0.0175122 0.251604 0)
(0.0181311 0.257726 0)
(0.0187219 0.263648 0)
(0.0192856 0.269381 0)
(0.019824 0.274935 0)
(0.0203395 0.28032 0)
(0.0208346 0.285544 0)
(0.0213123 0.290618 0)
(0.0217758 0.295548 0)
(0.0222284 0.30034 0)
(0.0226732 0.304995 0)
(0.0231134 0.309515 0)
(0.023552 0.313898 0)
(0.0239914 0.318137 0)
(0.0244341 0.322226 0)
(0.0248817 0.326153 0)
(0.0253355 0.329903 0)
(0.0257964 0.333461 0)
(0.0262647 0.336807 0)
(0.0267399 0.33992 0)
(0.0272215 0.342776 0)
(0.0277079 0.345352 0)
(0.0281976 0.347623 0)
(0.0286884 0.349561 0)
(0.0291775 0.351143 0)
(0.0296623 0.352343 0)
(0.0301395 0.353137 0)
(0.0306058 0.353503 0)
(0.0310576 0.353422 0)
(0.0314915 0.352877 0)
(0.0319037 0.351852 0)
(0.0322909 0.350339 0)
(0.0326496 0.34833 0)
(0.0329767 0.345823 0)
(0.0332693 0.34282 0)
(0.033525 0.339328 0)
(0.0337417 0.335359 0)
(0.0339179 0.330927 0)
(0.0340525 0.326053 0)
(0.0341453 0.32076 0)
(0.0341965 0.315076 0)
(0.0342069 0.30903 0)
(0.0341781 0.302655 0)
(0.0341121 0.295983 0)
(0.0340116 0.289047 0)
(0.0338797 0.281881 0)
(0.0337198 0.274517 0)
(0.0335356 0.266983 0)
(0.0333309 0.259307 0)
(0.0331095 0.251511 0)
(0.0328748 0.243614 0)
(0.0326301 0.23563 0)
(0.0323781 0.22757 0)
(0.0321209 0.219438 0)
(0.0318598 0.211235 0)
(0.0315956 0.202958 0)
(0.0313277 0.194599 0)
(0.0310551 0.18615 0)
(0.0307756 0.177596 0)
(0.0304861 0.168925 0)
(0.0301829 0.160121 0)
(0.0298614 0.151168 0)
(0.0295163 0.142052 0)
(0.0291419 0.132758 0)
(0.0287317 0.123273 0)
(0.0282792 0.113585 0)
(0.0277776 0.103685 0)
(0.0272198 0.0935649 0)
(0.0265986 0.0832189 0)
(0.0259071 0.0726431 0)
(0.0251381 0.0618354 0)
(0.0242846 0.0507951 0)
(1.29617e-05 0.00491332 0)
(8.2369e-05 0.0146788 0)
(0.000237444 0.0244593 0)
(0.000471286 0.03425 0)
(0.000778188 0.0440448 0)
(0.00115556 0.0538362 0)
(0.00160092 0.0636151 0)
(0.00211113 0.0733713 0)
(0.00268261 0.0830932 0)
(0.00331145 0.0927682 0)
(0.00399341 0.102383 0)
(0.00472393 0.111922 0)
(0.00549817 0.121372 0)
(0.00631102 0.130717 0)
(0.00715717 0.139942 0)
(0.00803114 0.149031 0)
(0.00892735 0.157969 0)
(0.0098402 0.166742 0)
(0.0107641 0.175338 0)
(0.0116936 0.183743 0)
(0.0126234 0.191948 0)
(0.0135486 0.199943 0)
(0.0144645 0.207721 0)
(0.0153668 0.215276 0)
(0.0162519 0.222607 0)
(0.0171167 0.229711 0)
(0.0179586 0.236589 0)
(0.0187757 0.243245 0)
(0.0195668 0.249683 0)
(0.0203314 0.25591 0)
(0.0210696 0.261932 0)
(0.0217823 0.267759 0)
(0.0224709 0.273399 0)
(0.0231371 0.278862 0)
(0.0237835 0.284157 0)
(0.0244126 0.289291 0)
(0.0250276 0.294273 0)
(0.0256315 0.299107 0)
(0.0262275 0.303796 0)
(0.0268186 0.308343 0)
(0.0274079 0.312746 0)
(0.0279979 0.317 0)
(0.0285909 0.321098 0)
(0.0291888 0.325031 0)
(0.0297928 0.328786 0)
(0.0304039 0.332347 0)
(0.0310222 0.335696 0)
(0.0316475 0.338814 0)
(0.0322788 0.341678 0)
(0.0329149 0.344264 0)
(0.0335536 0.346548 0)
(0.0341927 0.348506 0)
(0.0348292 0.350111 0)
(0.0354601 0.35134 0)
(0.0360818 0.352168 0)
(0.0366907 0.352575 0)
(0.0372828 0.352539 0)
(0.0378542 0.352044 0)
(0.038401 0.351075 0)
(0.0389193 0.349621 0)
(0.0394053 0.347675 0)
(0.0398557 0.345235 0)
(0.0402672 0.342301 0)
(0.0406373 0.33888 0)
(0.0409636 0.334982 0)
(0.0412446 0.330621 0)
(0.0414792 0.325816 0)
(0.0416671 0.320591 0)
(0.0418086 0.314972 0)
(0.0419047 0.308987 0)
(0.0419573 0.302667 0)
(0.0419688 0.296046 0)
(0.041942 0.289155 0)
(0.0418806 0.282029 0)
(0.0417884 0.274697 0)
(0.0416695 0.26719 0)
(0.0415283 0.259534 0)
(0.041369 0.251754 0)
(0.0411955 0.243867 0)
(0.0410116 0.235889 0)
(0.0408203 0.227832 0)
(0.0406241 0.2197 0)
(0.0404247 0.211497 0)
(0.0402227 0.203219 0)
(0.0400179 0.19486 0)
(0.0398092 0.186412 0)
(0.0395944 0.177863 0)
(0.0393701 0.1692 0)
(0.0391324 0.160407 0)
(0.0388764 0.151471 0)
(0.0385962 0.142377 0)
(0.0382855 0.13311 0)
(0.0379376 0.123657 0)
(0.0375452 0.114008 0)
(0.0371008 0.104152 0)
(0.0365965 0.0940804 0)
(0.0360248 0.0837884 0)
(0.0353776 0.0732713 0)
(0.0346473 0.0625266 0)
(0.0338261 0.0515534 0)
(1.33104e-05 0.00474001 0)
(8.49017e-05 0.014178 0)
(0.000245258 0.0236478 0)
(0.000487613 0.0331455 0)
(0.000806467 0.0426655 0)
(0.00119955 0.0522011 0)
(0.00166472 0.0617437 0)
(0.00219916 0.0712838 0)
(0.00279961 0.0808103 0)
(0.00346248 0.090311 0)
(0.00418381 0.0997728 0)
(0.00495933 0.109181 0)
(0.00578442 0.118522 0)
(0.0066542 0.12778 0)
(0.00756353 0.136938 0)
(0.00850704 0.145982 0)
(0.00947924 0.154895 0)
(0.0104745 0.163664 0)
(0.0114873 0.172272 0)
(0.012512 0.180708 0)
(0.0135432 0.188959 0)
(0.0145757 0.197014 0)
(0.0156045 0.204865 0)
(0.0166252 0.212504 0)
(0.0176336 0.219926 0)
(0.0186261 0.227129 0)
(0.0195999 0.234109 0)
(0.0205525 0.24087 0)
(0.0214822 0.247413 0)
(0.0223881 0.253742 0)
(0.0232697 0.259865 0)
(0.0241275 0.265786 0)
(0.0249625 0.271515 0)
(0.025776 0.27706 0)
(0.0265703 0.282428 0)
(0.0273476 0.287628 0)
(0.0281108 0.292666 0)
(0.0288629 0.297548 0)
(0.0296068 0.302277 0)
(0.0303457 0.306857 0)
(0.0310824 0.311285 0)
(0.0318196 0.315558 0)
(0.0325596 0.319672 0)
(0.0333044 0.323616 0)
(0.0340552 0.32738 0)
(0.034813 0.33095 0)
(0.0355781 0.334307 0)
(0.0363501 0.337435 0)
(0.0371281 0.34031 0)
(0.0379107 0.342912 0)
(0.0386958 0.345215 0)
(0.0394808 0.347197 0)
(0.0402627 0.348832 0)
(0.0410381 0.350095 0)
(0.0418032 0.350964 0)
(0.0425539 0.351417 0)
(0.043286 0.351434 0)
(0.0439954 0.350997 0)
(0.0446775 0.35009 0)
(0.0453283 0.348704 0)
(0.0459436 0.34683 0)
(0.0465197 0.344465 0)
(0.0470532 0.341609 0)
(0.047541 0.338267 0)
(0.0479809 0.334448 0)
(0.048371 0.330166 0)
(0.0487102 0.32544 0)
(0.048998 0.32029 0)
(0.0492349 0.314743 0)
(0.0494221 0.308825 0)
(0.0495613 0.302569 0)
(0.0496553 0.296004 0)
(0.0497074 0.289164 0)
(0.0497213 0.282082 0)
(0.0497013 0.274787 0)
(0.0496521 0.267311 0)
(0.0495783 0.259679 0)
(0.0494845 0.251916 0)
(0.0493753 0.244042 0)
(0.0492547 0.236072 0)
(0.0491262 0.228019 0)
(0.0489926 0.219889 0)
(0.0488558 0.211685 0)
(0.0487168 0.203407 0)
(0.0485755 0.195048 0)
(0.0484309 0.186602 0)
(0.0482805 0.178058 0)
(0.0481211 0.169403 0)
(0.0479485 0.160623 0)
(0.0477573 0.151705 0)
(0.0475415 0.142634 0)
(0.0472944 0.133396 0)
(0.0470084 0.123978 0)
(0.0466759 0.114369 0)
(0.0462887 0.10456 0)
(0.0458383 0.094541 0)
(0.0453164 0.0843069 0)
(0.0447144 0.0738527 0)
(0.0440237 0.0631757 0)
(0.0432361 0.0522747 0)
(1.35722e-05 0.00456499 0)
(8.68757e-05 0.0136709 0)
(0.000251448 0.0228245 0)
(0.000500694 0.0320223 0)
(0.000829348 0.0412596 0)
(0.00123547 0.0505302 0)
(0.00171726 0.0598263 0)
(0.00227226 0.0691389 0)
(0.00289753 0.0784576 0)
(0.00358981 0.0877708 0)
(0.00434547 0.0970656 0)
(0.00516054 0.106328 0)
(0.00603069 0.115544 0)
(0.00695129 0.124698 0)
(0.00791739 0.133774 0)
(0.00892383 0.142756 0)
(0.00996522 0.151629 0)
(0.011036 0.160376 0)
(0.0121307 0.168982 0)
(0.0132436 0.177433 0)
(0.0143692 0.185716 0)
(0.0155022 0.193819 0)
(0.0166373 0.20173 0)