/*--------------------------------*- C++ -*----------------------------------*\
| =========                 |                                                 |
| \\      /  F ield         | OpenFOAM: The Open Source CFD Toolbox           |
|  \\    /   O peration     | Version:  2412                                  |
|   \\  /    A nd           | Website:  www.openfoam.com                      |
|    \\/     M anipulation  |                                                 |
\*---------------------------------------------------------------------------*/
FoamFile
{
    version     2.0;
    format      ascii;
    arch        "LSB;label=32;scalar=64";
    class       volVectorField;
    location    "1.99";
    object      U;
}
// * * * * * * * * * * * * * * * * * * * * * * * * * * * * * * * * * * * * * //

dimensions      [0 1 -1 0 0 0 0];

internalField   nonuniform List<vector> 
64350
(
(0.0080684 7.83426e-21 -0.00142111)
(0.00865243 7.61073e-24 -0.0017593)
(0.00959457 1.55339e-20 -0.00237248)
(0.0107436 0 -0.00319624)
(0.0284385 0 -0.00370952)
(0.0474546 0 -0.00239859)
(0.0618651 0 -0.00203144)
(0.0754501 0 -0.00185543)
(0.0878658 0 -0.00174782)
(0.0998028 0 -0.00167813)
(0.111316 0 -0.00162602)
(0.122519 0 -0.0015843)
(0.133457 0 -0.00154861)
(0.144164 0 -0.00151663)
(0.154658 0 -0.00148696)
(0.164951 0 -0.00145877)
(0.175051 0 -0.00143152)
(0.184964 0 -0.0014049)
(0.194693 0 -0.00137871)
(0.204239 0 -0.00135283)
(0.213606 0 -0.00132718)
(0.222794 0 -0.00130175)
(0.231806 0 -0.00127651)
(0.240641 0 -0.00125148)
(0.249302 0 -0.00122667)
(0.25779 0 -0.0012021)
(0.266108 0 -0.0011778)
(0.274256 0 -0.00115378)
(0.282237 0 -0.00113007)
(0.290054 0 -0.0011067)
(0.297709 0 -0.00108368)
(0.305203 0 -0.00106102)
(0.312541 0 -0.00103876)
(0.319724 0 -0.0010169)
(0.326756 0 -0.00099545)
(0.33364 0 -0.000974422)
(0.340377 0 -0.000953823)
(0.346973 0 -0.000933658)
(0.353429 0 -0.00091393)
(0.359748 0 -0.000894642)
(0.365934 0 -0.000875794)
(0.37199 0 -0.000857384)
(0.377918 0 -0.00083941)
(0.383723 0 -0.00082187)
(0.389406 0 -0.000804757)
(0.394972 0 -0.000788069)
(0.400422 0 -0.000771798)
(0.405759 0 -0.000755938)
(0.410988 0 -0.000740482)
(0.416109 0 -0.000725422)
(0.421127 0 -0.000710752)
(0.426044 0 -0.000696463)
(0.430861 0 -0.000682546)
(0.435583 0 -0.000668993)
(0.440212 0 -0.000655796)
(0.444749 0 -0.000642947)
(0.449198 0 -0.000630435)
(0.453561 0 -0.000618254)
(0.457839 0 -0.000606393)
(0.462036 0 -0.000594845)
(0.466153 0 -0.000583602)
(0.470193 0 -0.000572654)
(0.474157 0 -0.000561995)
(0.478048 0 -0.000551614)
(0.481867 0 -0.000541506)
(0.485616 0 -0.000531661)
(0.489297 0 -0.000522073)
(0.492913 0 -0.000512734)
(0.496464 0 -0.000503637)
(0.499952 0 -0.000494774)
(0.503379 0 -0.000486138)
(0.506746 0 -0.000477724)
(0.510056 0 -0.000469524)
(0.513308 0 -0.000461532)
(0.516506 0 -0.000453742)
(0.51965 0 -0.000446148)
(0.522742 0 -0.000438744)
(0.525782 0 -0.000431524)
(0.528773 0 -0.000424484)
(0.531715 0 -0.000417617)
(0.53461 0 -0.000410918)
(0.537458 0 -0.000404383)
(0.540261 0 -0.000398006)
(0.543021 0 -0.000391784)
(0.545737 0 -0.000385711)
(0.548412 0 -0.000379783)
(0.551045 0 -0.000373996)
(0.553639 0 -0.000368345)
(0.556194 0 -0.000362828)
(0.55871 0 -0.000357439)
(0.561189 0 -0.000352175)
(0.563632 0 -0.000347033)
(0.56604 0 -0.000342009)
(0.568412 0 -0.0003371)
(0.570751 0 -0.000332302)
(0.573057 0 -0.000327613)
(0.57533 0 -0.000323029)
(0.577572 0 -0.000318547)
(0.579783 0 -0.000314165)
(0.581963 0 -0.00030988)
(0.584114 0 -0.000305688)
(0.586236 0 -0.000301588)
(0.588329 0 -0.000297578)
(0.590395 0 -0.000293653)
(0.592433 0 -0.000289814)
(0.594446 0 -0.000286056)
(0.596432 0 -0.000282378)
(0.598392 0 -0.000278778)
(0.600328 0 -0.000275253)
(0.60224 0 -0.000271803)
(0.604127 0 -0.000268424)
(0.605992 0 -0.000265115)
(0.607833 0 -0.000261875)
(0.609652 0 -0.000258701)
(0.611449 0 -0.000255592)
(0.613225 0 -0.000252546)
(0.614979 0 -0.000249562)
(0.616713 0 -0.000246638)
(0.618427 0 -0.000243773)
(0.62012 0 -0.000240965)
(0.621795 0 -0.000238213)
(0.62345 0 -0.000235516)
(0.625087 0 -0.000232873)
(0.626705 0 -0.000230282)
(0.628306 0 -0.000227741)
(0.629889 0 -0.000225251)
(0.631454 0 -0.000222809)
(0.633003 0 -0.000220416)
(0.634535 0 -0.000218069)
(0.636051 0 -0.000215767)
(0.637552 0 -0.000213511)
(0.639036 0 -0.000211299)
(0.640505 0 -0.00020913)
(0.641959 0 -0.000207002)
(0.643399 0 -0.000204917)
(0.644824 0 -0.000202872)
(0.646235 0 -0.000200868)
(0.647632 0 -0.000198901)
(0.649015 0 -0.000196977)
(0.650385 0 -0.000195085)
(0.651742 0 -0.000193238)
(0.653087 0 -0.000191419)
(0.654418 0 -0.000189649)
(0.655738 0 -0.000187896)
(0.657045 0 -0.000186206)
(0.658342 0 -0.000184514)
(0.659623 0 -0.000182908)
(0.660899 0 -0.000181267)
(0.662157 0 -0.000179757)
(0.663414 0 -0.000178147)
(0.0131278 -1.22149e-20 0.00151205)
(0.0129973 9.43797e-23 0.00150348)
(0.0128728 -1.88096e-22 0.00149485)
(0.0127552 1.20354e-20 0.00148788)
(0.0126194 -1.19447e-20 0.00148102)
(0.0124914 1.17583e-20 0.00147288)
(0.0123753 1.17583e-20 0.00146617)
(0.0122454 -1.15792e-20 0.00145965)
(0.0121044 -1.14869e-20 0.0014514)
(0.0119807 -1.13914e-20 0.00144184)
(0.0118695 -1.12108e-20 0.00143418)
(0.0117469 -8.79088e-23 0.00142749)
(0.0116094 -1.11211e-20 0.00141971)
(0.0114807 0 0.00140986)
(0.0113604 -1.10255e-20 0.00140032)
(0.0112507 1.10156e-20 0.00139108)
(0.0111226 -8.44159e-23 0.00138336)
(0.0110077 1.05829e-20 0.00137384)
(0.0108958 8.30192e-23 0.00136749)
(0.0107686 0 0.00135952)
(0.0106453 4.04595e-23 0.00135123)
(0.0105318 -4.0435e-23 0.00134232)
(0.0104165 1.0226e-20 0.00133457)
(0.0102834 0 0.0013252)
(0.0101672 -3.90824e-23 0.00131445)
(0.0100695 3.28943e-25 0.00130574)
(0.00995556 9.87877e-21 0.00129876)
(0.00983408 9.86965e-21 0.00129059)
(0.00971082 -3.80244e-23 0.00128145)
(0.00959732 0 0.00127119)
(0.00950129 0 0.00126271)
(0.00938442 3.67548e-23 0.00125543)
(0.00926077 -3.66626e-23 0.00124598)
(0.00915073 1.85698e-20 0.00123596)
(0.00904185 9.15478e-21 0.00122606)
(0.00894285 3.73077e-23 0.00121699)
(0.00884556 -7.04104e-23 0.00120996)
(0.00872828 3.33215e-23 0.00120287)
(0.00861607 3.24332e-23 0.0011939)
(0.00850854 -8.78661e-21 0.0011849)
(0.00839991 0 0.00117495)
(0.00830344 8.57817e-21 0.00116547)
(0.00820799 0 0.00115709)
(0.00810334 8.4254e-21 0.00114883)
(0.00801051 8.33779e-21 0.00114013)
(0.007918 0 0.00113333)
(0.00783274 8.16155e-21 0.00112797)
(0.00778493 -1.61718e-20 0.00113309)
(0.00777931 1.60186e-20 0.00116661)
(0.00784121 7.91705e-21 0.00124909)
(0.0080684 -7.83426e-21 0.00142111)
(0.00865243 -7.61073e-24 0.0017593)
(0.00959457 -1.55339e-20 0.00237247)
(0.0107436 0 0.00319624)
(0.042271 -1.27241e-20 0.00454839)
(0.0418765 -1.25337e-20 0.0045251)
(0.0414918 1.24372e-20 0.00450248)
(0.041117 -2.1756e-25 0.00448186)
(0.040721 -1.24422e-20 0.00446118)
(0.0403347 -1.21511e-20 0.00443978)
(0.0399634 -8.6367e-27 0.00441976)
(0.039576 -1.20609e-20 0.00439955)
(0.0391746 1.19648e-20 0.00437697)
(0.0387952 2.38224e-20 0.00435313)
(0.0384334 2.33529e-20 0.00433114)
(0.0380592 1.17666e-20 0.00431009)
(0.037666 1.15829e-20 0.00428733)
(0.037284 1.14866e-20 0.00426224)
(0.0369145 1.13941e-20 0.00423688)
(0.0365611 -1.12076e-20 0.00421242)
(0.0361867 1.11231e-20 0.00418876)
(0.0358291 -1.11072e-20 0.00416485)
(0.0354753 -1.09392e-20 0.00414322)
(0.0351045 1.084e-20 0.00412042)
(0.0347373 4.214e-23 0.00409675)
(0.0343831 -4.21129e-23 0.00407275)
(0.0340277 1.06507e-20 0.00404912)
(0.0336516 -1.05557e-20 0.00402336)
(0.0332971 4.07053e-23 0.00399662)
(0.0329681 -1.03746e-20 0.00397217)
(0.0326213 -1.0326e-20 0.00394937)
(0.0322647 3.96691e-23 0.0039257)
(0.0319054 -1.01345e-20 0.00390033)
(0.0315595 -3.89195e-23 0.00387419)
(0.031237 3.89171e-23 0.00385002)
(0.0308909 0 0.00382647)
(0.0305361 0 0.00380108)
(0.0301987 -9.68594e-21 0.00377478)
(0.0298662 3.75594e-23 0.00374868)
(0.0295482 -9.45787e-21 0.00372434)
(0.0292337 0 0.00370239)
(0.0288955 9.29608e-21 0.00368033)
(0.0285627 1.84153e-20 0.00365694)
(0.0282374 9.1162e-21 0.00363289)
(0.0279144 1.75779e-23 0.00360847)
(0.0276102 -1.65971e-25 0.00358549)
(0.0273124 -1.64268e-25 0.00356499)
(0.0270096 -1.72216e-23 0.00354699)
(0.0267282 0 0.00353342)
(0.0264598 1.67088e-23 0.00352864)
(0.0262154 -1.63954e-25 0.00353998)
(0.02603 8.39867e-21 0.00358703)
(0.0259165 -8.34823e-21 0.00370735)
(0.0259039 -8.23946e-21 0.00396009)
(0.0260746 -8.03193e-24 0.00442185)
(0.0265344 0 0.00523624)
(0.0271044 1.61258e-20 0.00656738)
(0.027675 -2.02424e-24 0.00821601)
(0.0740923 1.28231e-20 0.00756783)
(0.0734286 1.25329e-20 0.00753382)
(0.0727784 9.75665e-23 0.0075014)
(0.0721402 -2.49755e-20 0.00746895)
(0.0714797 1.225e-20 0.00743571)
(0.0708317 9.60501e-23 0.00740436)
(0.0702 -1.21523e-20 0.00737229)
(0.0695522 1.20608e-20 0.00733908)
(0.0688894 9.31069e-23 0.00730499)
(0.0682517 -9.31694e-23 0.00727188)
(0.0676335 -1.17685e-20 0.00723783)
(0.0670037 -1.16749e-20 0.007203)
(0.0663536 0 0.00716693)
(0.0657171 -1.14865e-20 0.0071314)
(0.0650941 0 0.00709445)
(0.0644921 0 0.00705882)
(0.0638658 -1.1211e-20 0.00702046)
(0.0632624 1.11089e-20 0.00698655)
(0.0626609 -7.80346e-25 0.00694921)
(0.0620441 -1.08831e-20 0.00691348)
(0.0614298 -1.08351e-20 0.00687649)
(0.0608318 -1.08204e-20 0.00684058)
(0.0602326 -1.06088e-20 0.00680227)
(0.0596117 2.10714e-20 0.00676341)
(0.0590155 -1.04256e-20 0.00672624)
(0.0584486 1.04145e-20 0.00668888)
(0.0578633 -4.03574e-23 0.00665027)
(0.057269 0 0.00661278)
(0.0566709 1.00948e-20 0.00657404)
(0.056089 0 0.0065368)
(0.0555342 0 0.00649938)
(0.0549542 -3.82842e-23 0.00645985)
(0.0543662 3.42809e-25 0.00642206)
(0.0537975 3.78732e-23 0.006384)
(0.0532358 3.72266e-23 0.00634623)
(0.0526918 9.42576e-21 0.00631034)
(0.0521534 0 0.00627442)
(0.0515895 0 0.00623827)
(0.0510334 -9.2091e-21 0.0062046)
(0.0504859 2.50498e-24 0.00616999)
(0.0499436 1.75829e-23 0.00613773)
(0.0494244 -1.75383e-23 0.00610832)
(0.0489155 1.72168e-23 0.00608261)
(0.048404 -1.72276e-23 0.00606359)
(0.0479205 8.67326e-21 0.00605803)
(0.0474528 8.63671e-21 0.00607025)
(0.0470134 -1.67031e-23 0.00611908)
(0.0466347 0 0.00622671)
(0.04631 0 0.00643138)
(0.046055 8.25546e-21 0.00680011)
(0.0459046 8.1877e-21 0.00742197)
(0.0458675 0 0.00838482)
(0.0457388 -8.04758e-21 0.00975125)
(0.0455132 0 0.0112848)
(0.108521 -1.98796e-22 0.0105632)
(0.107585 9.90404e-23 0.0105215)
(0.106666 -1.25333e-20 0.0104812)
(0.10576 1.24386e-20 0.01044)
(0.104832 0 0.0103974)
(0.103919 0 0.0103572)
(0.103024 1.2151e-20 0.0103157)
(0.102114 0 0.0102725)
(0.101187 0 0.0102289)
(0.100289 -1.17726e-20 0.0101871)
(0.0994118 -1.18603e-20 0.0101435)
(0.0985238 0 0.0100982)
(0.0976143 1.16733e-20 0.0100516)
(0.0967218 -1.15766e-20 0.0100066)
(0.0958424 0 0.00996014)
(0.0949893 -8.79165e-23 0.0099149)
(0.0941068 -1.1124e-20 0.00986559)
(0.0932553 -1.11953e-20 0.00982166)
(0.0924021 1.1112e-20 0.00977285)
(0.0915367 1.09267e-20 0.00972597)
(0.0906723 1.07925e-20 0.00967781)
(0.0898283 1.08203e-20 0.00963114)
(0.0889824 -1.0694e-20 0.00958143)
(0.088114 -1.05978e-20 0.00953155)
(0.0872736 8.09398e-23 0.00948432)
(0.0864653 -4.07038e-23 0.00943622)
(0.0856374 1.02899e-20 0.00938555)
(0.0848024 3.96794e-23 0.0093363)
(0.0839624 -1.01372e-20 0.00928623)
(0.0831414 -3.89308e-23 0.00923851)
(0.0823508 -9.88333e-21 0.00919011)
(0.0815327 3.82906e-23 0.00913862)
(0.0807084 9.696e-21 0.00908995)
(0.0799049 0 0.00904182)
(0.0791097 0 0.00899425)
(0.0783351 -1.88905e-20 0.00894856)
(0.0775673 -3.68449e-23 0.00890218)
(0.0767727 0 0.00885558)
(0.0759892 0 0.00881323)
(0.0752144 -9.11851e-21 0.00877114)
(0.0744472 9.04848e-21 0.00873331)
(0.0737061 -1.73779e-23 0.00870024)
(0.0729773 1.73857e-23 0.008673)
(0.0722459 0 0.00865595)
(0.0715462 -8.69e-21 0.00865817)
(0.070859 -8.58625e-21 0.00868493)
(0.0701962 -1.67102e-23 0.00875792)
(0.0695839 -8.19391e-24 0.00889987)
(0.0690021 1.6326e-23 0.00914573)
(0.068426 -8.26945e-21 0.00954428)
(0.0678755 -8.18356e-21 0.0101744)
(0.0673446 -3.96802e-24 0.0110976)
(0.0666269 0 0.0123014)
(0.06575 0 0.0136399)
(0.145451 -9.97493e-23 0.0135226)
(0.144241 0 0.0134758)
(0.143052 1.25332e-20 0.0134301)
(0.141878 0 0.0133831)
(0.14068 -1.24391e-20 0.013334)
(0.139501 1.91339e-22 0.0132872)
(0.138341 -9.6807e-23 0.0132388)
(0.137166 9.38544e-23 0.0131884)
(0.135975 1.1962e-20 0.0131376)
(0.134816 -1.18638e-20 0.0130889)
(0.133678 2.34424e-20 0.0130381)
(0.13253 1.16736e-20 0.0129851)
(0.13136 -2.30753e-20 0.0129306)
(0.13021 1.13963e-20 0.0128781)
(0.129073 8.8662e-23 0.0128242)
(0.127968 1.12073e-20 0.0127715)
(0.126827 1.12118e-20 0.012714)
(0.125726 -8.64502e-23 0.0126619)
(0.124619 -1.09392e-20 0.0126044)
(0.123503 -1.0884e-20 0.0125486)
(0.122387 -4.24982e-23 0.0124915)
(0.121295 0 0.0124361)
(0.120201 1.06521e-20 0.0123775)
(0.119083 0 0.0123186)
(0.117996 1.04673e-20 0.0122629)
(0.116945 1.04166e-20 0.0122062)
(0.115872 -7.9854e-23 0.0121462)
(0.114794 4.00255e-23 0.0120876)
(0.11371 1.00974e-20 0.0120283)
(0.112647 -3.89343e-23 0.0119718)
(0.111619 9.96109e-21 0.0119146)
(0.11056 0 0.011854)
(0.109496 -1.9507e-20 0.0117965)
(0.108455 3.78848e-23 0.0117402)
(0.107423 0 0.0116848)
(0.106415 9.4276e-21 0.0116314)
(0.105414 3.68503e-23 0.0115773)
(0.104384 9.30446e-21 0.0115231)
(0.103369 -9.25022e-21 0.0114743)
(0.102362 3.57948e-23 0.0114269)
(0.101365 -9.04831e-21 0.0113855)
(0.100395 0 0.0113506)
(0.0994383 -1.72265e-23 0.0113234)
(0.0984769 1.72371e-23 0.0113087)
(0.0975491 8.69391e-21 0.0113166)
(0.0966267 0 0.0113518)
(0.0957221 8.51539e-21 0.0114353)
(0.0948546 8.43225e-21 0.0115864)
(0.0939966 -8.12301e-24 0.0118337)
(0.0931097 8.26933e-21 0.0122128)
(0.0921811 -3.97433e-24 0.0127647)
(0.0912228 4.30543e-26 0.013544)
(0.0900565 1.98594e-24 0.0145603)
(0.0886899 1.99124e-24 0.0157382)
(0.18474 9.97279e-23 0.0164292)
(0.183258 1.27232e-20 0.0163799)
(0.1818 -9.82617e-23 0.0163315)
(0.180358 9.67878e-23 0.0162814)
(0.17889 -1.90308e-22 0.0162286)
(0.177447 9.60183e-23 0.0161779)
(0.176022 -2.42963e-20 0.0161254)
(0.174583 9.38407e-23 0.0160706)
(0.173127 -1.21495e-20 0.0160149)
(0.171707 2.3817e-20 0.0159616)
(0.170309 -1.17667e-20 0.0159061)
(0.168902 -1.16735e-20 0.0158481)
(0.167472 1.15823e-20 0.0157882)
(0.166065 0 0.0157305)
(0.16467 1.13045e-20 0.0156713)
(0.163313 8.7193e-23 0.0156134)
(0.161913 -1.12104e-20 0.01555)
(0.160563 -1.11071e-20 0.0154922)
(0.159201 2.20501e-20 0.0154284)
(0.157836 1.09679e-20 0.0153662)
(0.156467 -4.24962e-23 0.0153024)
(0.155128 -1.07778e-20 0.0152405)
(0.153784 4.17798e-23 0.0151753)
(0.152416 0 0.0151097)
(0.151084 4.0715e-23 0.0150474)
(0.149788 -1.03765e-20 0.0149842)
(0.148469 -1.03305e-20 0.0149174)
(0.147148 1.0202e-20 0.0148517)
(0.145818 3.92712e-23 0.0147854)
(0.144514 -3.92821e-23 0.014722)
(0.143245 0 0.0146583)
(0.141944 -3.82969e-23 0.0145908)
(0.140641 9.73531e-21 0.0145267)
(0.13936 3.78871e-23 0.0144641)
(0.138089 9.57745e-21 0.0144027)
(0.136845 0 0.0143438)
(0.135608 9.39187e-21 0.0142842)
(0.134341 -1.85731e-20 0.0142247)
(0.133091 9.17808e-21 0.0141713)
(0.131848 9.12254e-21 0.0141205)
(0.130617 0 0.0140767)
(0.129414 -1.73832e-23 0.0140407)
(0.128223 -8.84489e-21 0.0140138)
(0.127025 0 0.0140004)
(0.125861 -8.69376e-21 0.0140105)
(0.124694 1.67283e-23 0.0140473)
(0.12354 -8.53198e-21 0.0141294)
(0.122413 -8.43214e-21 0.0142711)
(0.121281 -8.12053e-24 0.0144931)
(0.120102 8.10458e-24 0.014821)
(0.118862 -3.97237e-24 0.0152835)
(0.117553 7.88262e-24 0.0159049)
(0.116024 -1.98556e-24 0.0167178)
(0.114289 -1.98541e-24 0.0177232)
(0.22621 -1.28114e-20 0.019264)
(0.224458 -2.52456e-20 0.019215)
(0.222734 9.7502e-23 0.0191665)
(0.221027 1.23313e-20 0.0191161)
(0.219293 1.23403e-20 0.0190625)
(0.217587 1.22378e-20 0.0190106)
(0.2159 3.41273e-24 0.0189567)
(0.2142 0 0.0189003)
(0.212482 -1.19575e-20 0.0188426)
(0.210804 -1.17686e-20 0.0187871)
(0.209149 1.16695e-20 0.0187294)
(0.207486 1.16689e-20 0.0186691)
(0.205797 -9.01028e-23 0.0186064)
(0.204136 -1.1302e-20 0.0185458)
(0.202484 -2.28731e-20 0.0184836)
(0.200878 -1.12064e-20 0.0184229)
(0.199221 -8.59819e-23 0.018356)
(0.197625 -8.4375e-23 0.0182948)
(0.196009 -2.19607e-20 0.0182273)
(0.194396 -1.08828e-20 0.0181612)
(0.192776 -8.46313e-23 0.0180932)
(0.191191 2.14706e-20 0.018027)
(0.189599 4.17753e-23 0.0179576)
(0.187984 0 0.0178875)
(0.186406 0 0.0178206)
(0.184868 0 0.0177532)
(0.183304 0 0.0176818)
(0.18174 -2.04027e-20 0.0176115)
(0.180166 -3.92694e-23 0.0175402)
(0.17862 1.00107e-20 0.0174721)
(0.177113 3.89312e-23 0.017404)
(0.175569 -3.82958e-23 0.0173319)
(0.174026 3.82003e-23 0.0172632)
(0.172506 0 0.0171963)
(0.170997 -9.61452e-21 0.0171308)
(0.169516 -9.42802e-21 0.0170681)
(0.168044 -9.39176e-21 0.0170052)
(0.166537 9.341e-21 0.0169422)
(0.165052 -3.61657e-23 0.0168861)
(0.163571 -9.12245e-21 0.016833)
(0.162103 0 0.0167877)
(0.160664 0 0.0167511)
(0.159236 8.87941e-21 0.0167241)
(0.157797 -3.43108e-23 0.0167104)
(0.156394 1.70633e-23 0.0167196)
(0.15498 8.62176e-21 0.0167529)
(0.153576 -3.32572e-23 0.0168261)
(0.152191 1.65463e-23 0.0169489)
(0.150794 8.351e-21 0.0171347)
(0.149341 -8.016e-24 0.017401)
(0.147823 8.02557e-24 0.0177705)
(0.14625 3.91531e-24 0.0182655)
(0.144466 -7.97842e-21 0.0188994)
(0.142411 0 0.019737)
(0.26964 1.27109e-20 0.0220067)
(0.267624 -9.35363e-23 0.0219607)
(0.265641 1.25189e-20 0.0219149)
(0.263676 -2.48522e-20 0.0218671)
(0.26168 -1.24277e-20 0.0218156)
(0.259719 -1.21418e-20 0.0217653)
(0.257775 1.21434e-20 0.0217129)
(0.255819 1.20481e-20 0.0216577)
(0.253844 4.1808e-24 0.0216008)
(0.251914 -1.17614e-20 0.0215457)
(0.250006 -9.6217e-23 0.0214885)
(0.248092 -1.1578e-20 0.0214285)
(0.246149 -7.12386e-25 0.0213657)
(0.244239 1.13913e-20 0.0213048)
(0.242336 2.28666e-20 0.0212419)
(0.240486 1.12879e-20 0.0211808)
(0.238576 2.23257e-20 0.021113)
(0.236738 1.11048e-20 0.0210508)
(0.234872 1.10226e-20 0.0209821)
(0.233016 -1.09207e-20 0.0209146)
(0.231148 1.07878e-20 0.0208448)
(0.229321 -2.14239e-20 0.0207768)
(0.227485 4.14265e-23 0.0207055)
(0.225625 -8.2455e-23 0.0206332)
(0.223806 -1.04224e-20 0.0205641)
(0.222028 0 0.0204946)
(0.220222 -1.03269e-20 0.0204209)
(0.21842 2.04396e-20 0.0203482)
(0.216603 3.92642e-23 0.0202744)
(0.214819 -1.00884e-20 0.0202037)
(0.213076 3.89261e-23 0.0201332)
(0.211293 -3.82913e-23 0.0200587)
(0.209512 3.81961e-23 0.0199875)
(0.207755 0 0.0199182)
(0.206009 3.72359e-23 0.0198505)
(0.204294 9.42793e-21 0.0197859)
(0.202587 9.35319e-21 0.0197214)
(0.200842 3.65062e-23 0.0196568)
(0.199123 0 0.0195993)
(0.197404 0 0.0195452)
(0.1957 0 0.0194992)
(0.194025 1.73799e-23 0.0194621)
(0.19236 -8.87656e-21 0.0194347)
(0.19068 -8.78115e-21 0.0194197)
(0.189037 -1.68946e-23 0.019426)
(0.187377 -8.57129e-21 0.0194529)
(0.185725 -1.6706e-23 0.0195136)
(0.18409 0 0.0196138)
(0.182441 -5.77066e-24 0.0197619)
(0.180732 -8.24286e-21 0.0199685)
(0.17896 -3.9647e-24 0.0202499)
(0.177152 7.86695e-24 0.0206276)
(0.17515 1.59361e-20 0.0211279)
(0.172829 -8.03711e-21 0.0218235)
(0.314772 -7.26009e-25 0.0246362)
(0.312503 -9.19677e-23 0.0245962)
(0.31027 -6.71774e-24 0.024556)
(0.308055 1.24235e-20 0.0245136)
(0.305809 1.23316e-20 0.0244671)
(0.3036 -1.22268e-20 0.0244214)
(0.301408 1.21327e-20 0.0243733)
(0.299205 -1.2048e-20 0.0243222)
(0.296982 1.20461e-20 0.0242688)
(0.294808 4.6819e-24 0.0242169)
(0.292655 -1.18498e-20 0.0241628)
(0.290497 -1.16598e-20 0.0241058)
(0.288309 -1.15696e-20 0.0240456)
(0.286158 0 0.0239871)
(0.284011 -1.14758e-20 0.0239262)
(0.281923 -1.12e-20 0.0238671)
(0.279767 -4.16171e-24 0.0238009)
(0.277695 -8.63847e-23 0.0237402)
(0.275586 8.64108e-23 0.0236728)
(0.273493 1.09631e-20 0.0236064)
(0.271385 -1.08723e-20 0.0235373)
(0.269322 1.06899e-20 0.0234701)
(0.267249 -1.06023e-20 0.0233993)
(0.26515 0 0.0233273)
(0.263095 1.0504e-20 0.0232582)
(0.261084 -1.03692e-20 0.0231888)
(0.259042 2.05301e-20 0.0231152)
(0.257006 -2.03945e-20 0.0230425)
(0.254953 0 0.0229683)
(0.252935 0 0.0228972)
(0.250962 0 0.0228265)
(0.248943 -3.82829e-23 0.0227518)
(0.24693 -9.69225e-21 0.0226801)
(0.24494 0 0.0226104)
(0.242961 0 0.0225424)
(0.241016 3.6797e-23 0.0224776)
(0.239078 -9.38993e-21 0.0224132)
(0.237099 -3.64981e-23 0.0223486)
(0.235149 0 0.0222913)
(0.233196 0 0.0222372)
(0.231259 -9.0446e-21 0.0221913)
(0.229351 -1.73745e-23 0.0221542)
(0.227452 8.89367e-21 0.0221262)
(0.225533 8.78084e-21 0.0221094)
(0.223655 -1.70526e-23 0.0221119)
(0.221752 0 0.0221313)
(0.219859 0 0.0221788)
(0.217981 -8.18002e-24 0.0222572)
(0.216089 -1.66826e-20 0.0223711)
(0.21414 8.25083e-21 0.0225264)
(0.212134 8.15427e-21 0.0227344)
(0.21011 -8.04124e-21 0.0230137)
(0.207914 -7.9655e-21 0.0233937)
(0.20535 1.60385e-20 0.0239479)
(0.361312 9.95448e-23 0.0271318)
(0.358802 1.26082e-20 0.0271007)
(0.356333 -1.25121e-20 0.0270689)
(0.353882 0 0.0270347)
(0.351396 -9.58947e-23 0.0269961)
(0.348953 1.03568e-22 0.0269578)
(0.346526 -2.43521e-20 0.0269169)
(0.344088 1.88106e-22 0.0268727)
(0.341629 -1.86617e-22 0.0268258)
(0.339222 1.91965e-22 0.0267799)
(0.336835 -1.18377e-20 0.0267317)
(0.334445 2.3313e-20 0.0266804)
(0.332023 1.14795e-20 0.0266256)
(0.329642 8.99736e-23 0.026572)
(0.32726 0 0.0265157)
(0.324947 0 0.0264612)
(0.322554 -1.11138e-20 0.0263993)
(0.320258 -8.70527e-23 0.0263425)
(0.317916 -1.10103e-20 0.026279)
(0.315596 1.0954e-20 0.0262163)
(0.313257 -4.24523e-23 0.0261505)
(0.310968 0 0.0260864)
(0.308665 1.06439e-20 0.0260187)
(0.306337 0 0.0259494)
(0.304056 0 0.0258826)
(0.30182 1.0409e-20 0.0258157)
(0.29955 -4.51544e-24 0.0257445)
(0.297289 -7.55545e-23 0.025674)
(0.295008 1.0128e-20 0.0256018)
(0.292765 -3.89062e-23 0.0255325)
(0.290568 3.89039e-23 0.0254638)
(0.288321 0 0.025391)
(0.286084 9.76816e-21 0.025321)
(0.283868 -3.7862e-23 0.0252529)
(0.281663 0 0.0251864)
(0.279494 -9.42033e-21 0.0251232)
(0.277332 -3.68274e-23 0.0250606)
(0.275125 3.61513e-23 0.0249977)
(0.272951 -3.61406e-23 0.0249418)
(0.270769 0 0.0248891)
(0.268605 4.25084e-24 0.0248441)
(0.266469 1.73665e-23 0.0248076)
(0.264342 -1.73746e-23 0.0247795)
(0.262191 -1.70526e-23 0.024761)
(0.260084 -8.66176e-21 0.0247597)
(0.257945 8.59032e-21 0.024772)
(0.255819 8.51179e-21 0.0248073)
(0.253707 -1.65155e-23 0.0248666)
(0.251584 1.66668e-20 0.024952)
(0.249407 8.22578e-21 0.0250662)
(0.247178 -8.15806e-21 0.0252167)
(0.244949 8.04506e-21 0.0254189)
(0.242575 0 0.0256999)
(0.239776 -1.59945e-20 0.0261248)
(0.408927 0 0.0294732)
(0.406195 -9.80287e-23 0.0294539)
(0.403506 1.25913e-20 0.0294334)
(0.400836 -1.23984e-20 0.0294103)
(0.398128 0 0.0293825)
(0.395466 1.22189e-20 0.0293544)
(0.392819 2.42407e-20 0.0293234)
(0.390163 1.21193e-20 0.029289)
(0.387483 -7.18459e-25 0.0292514)
(0.384859 1.17482e-20 0.0292143)
(0.382253 1.17455e-20 0.0291746)
(0.379646 -2.32982e-20 0.0291318)
(0.377004 0 0.0290851)
(0.374407 1.14591e-20 0.0290392)
(0.371805 0 0.0289901)
(0.36928 -8.77535e-23 0.0289427)
(0.366664 8.77686e-23 0.0288877)
(0.364158 1.1085e-20 0.0288374)
(0.361595 1.10102e-20 0.0287803)
(0.359062 -1.0869e-20 0.0287238)
(0.356504 -1.08992e-20 0.0286639)
(0.354001 3.46944e-25 0.0286053)
(0.351482 8.30958e-23 0.0285432)
(0.348937 1.04985e-20 0.0284791)
(0.346441 4.06587e-23 0.0284171)
(0.343991 -8.09586e-23 0.0283549)
(0.341504 -1.0279e-20 0.0282886)
(0.339031 1.02313e-20 0.0282226)
(0.336532 -2.01714e-20 0.0281547)
(0.334074 9.99646e-21 0.0280894)
(0.331664 0 0.0280248)
(0.3292 -3.82524e-23 0.0279561)
(0.326749 9.75969e-21 0.0278898)
(0.324317 0 0.0278253)
(0.321897 0 0.0277623)
(0.319513 9.45701e-21 0.0277024)
(0.317137 -9.3778e-21 0.0276434)
(0.314711 9.29131e-21 0.0275837)
(0.312321 0 0.0275309)
(0.30992 -9.12562e-21 0.0274808)
(0.307538 9.07529e-21 0.0274379)
(0.305184 -3.48789e-23 0.0274028)
(0.302837 3.45626e-23 0.0273753)
(0.300462 -8.79948e-21 0.0273559)
(0.298136 8.69568e-21 0.0273517)
(0.295771 -8.59017e-21 0.0273579)
(0.293422 -1.6982e-20 0.0273831)
(0.291086 0 0.0274269)
(0.288743 -8.33711e-21 0.0274899)
(0.286347 -2.03233e-24 0.0275727)
(0.283906 8.13805e-21 0.0276802)
(0.281479 -3.94234e-24 0.0278243)
(0.278938 0 0.0280286)
(0.275903 7.97753e-21 0.0283425)
(0.457257 0 0.0316417)
(0.454324 -9.79388e-23 0.0316371)
(0.451436 8.55595e-23 0.0316307)
(0.448567 1.21284e-23 0.0316213)
(0.445658 -9.57429e-23 0.0316071)
(0.442798 9.5711e-23 0.031592)
(0.439952 -1.21156e-20 0.0315736)
(0.437095 -1.1932e-20 0.0315517)
(0.434215 -1.20143e-20 0.0315262)
(0.431392 0 0.0315006)
(0.428587 0 0.031472)
(0.42578 9.90816e-24 0.0314404)
(0.422936 1.15456e-20 0.0314045)
(0.420142 -9.38027e-24 0.0313688)
(0.417337 -1.13599e-20 0.0313297)
(0.414617 1.13492e-20 0.0312919)
(0.411796 1.11788e-20 0.0312464)
(0.409095 -1.1258e-20 0.0312051)
(0.406329 -1.09088e-20 0.0311569)
(0.403598 -4.24121e-23 0.0311091)
(0.400838 1.0857e-20 0.0310575)
(0.398137 1.07507e-20 0.031007)
(0.395417 -4.16901e-23 0.0309529)
(0.39267 -1.05808e-20 0.0308965)
(0.389975 4.09841e-23 0.0308416)
(0.387326 4.02848e-23 0.0307865)
(0.384637 -3.37705e-25 0.0307273)
(0.381964 -1.01793e-20 0.0306682)
(0.379262 2.00805e-20 0.0306069)
(0.376604 -9.95716e-21 0.0305478)
(0.373995 9.90111e-21 0.0304894)
(0.371327 -3.82293e-23 0.0304269)
(0.368675 -1.93983e-20 0.0303666)
(0.366041 0 0.0303076)
(0.363417 3.7174e-23 0.03025)
(0.360832 -9.44572e-21 0.0301954)
(0.358253 9.34091e-21 0.0301415)
(0.35562 -9.25507e-21 0.0300869)
(0.353028 -7.18605e-23 0.0300385)
(0.35042 9.16125e-21 0.0299925)
(0.347831 -1.77232e-23 0.0299531)
(0.34527 0 0.0299205)
(0.342715 0 0.0298948)
(0.340129 2.51207e-23 0.0298756)
(0.337595 8.64567e-21 0.0298697)
(0.335017 1.66673e-23 0.0298717)
(0.332457 -7.04564e-24 0.0298893)
(0.329911 0 0.0299213)
(0.327359 0 0.0299675)
(0.324757 -8.21543e-21 0.0300274)
(0.322113 -1.54096e-23 0.0301038)
(0.319494 -8.00093e-21 0.0302058)
(0.316794 -3.89362e-24 0.0303532)
(0.313522 7.94361e-21 0.030576)
(0.505914 1.26503e-20 0.0336208)
(0.502806 9.78316e-23 0.0336335)
(0.499744 -2.50447e-20 0.0336437)
(0.496701 1.24825e-20 0.0336507)
(0.493615 -9.63556e-23 0.0336527)
(0.490581 -9.48913e-23 0.0336531)
(0.487558 9.48719e-23 0.03365)
(0.484526 0 0.0336432)
(0.481468 1.19207e-20 0.0336324)
(0.478469 1.18096e-20 0.0336208)
(0.475486 0 0.033606)
(0.472502 1.18593e-23 0.033588)
(0.469479 -1.16353e-20 0.0335655)
(0.466508 7.85071e-23 0.0335426)
(0.463522 1.13598e-20 0.0335159)
(0.460627 -1.07916e-23 0.0334902)
(0.457621 -1.10924e-20 0.0334568)
(0.454747 -8.68682e-23 0.0334268)
(0.451796 1.09949e-20 0.0333901)
(0.448888 0 0.0333533)
(0.445944 4.20189e-23 0.0333126)
(0.443064 -2.14506e-20 0.0332725)
(0.440163 0 0.0332287)
(0.437233 0 0.0331824)
(0.434357 1.04742e-20 0.0331371)
(0.431526 -1.03428e-20 0.0330913)
(0.428653 1.02179e-20 0.0330414)
(0.425799 2.03492e-20 0.0329915)
(0.422912 -1.00761e-20 0.0329391)
(0.420069 -3.88358e-23 0.0328884)
(0.417278 -1.97551e-20 0.0328383)
(0.414423 0 0.0327841)
(0.411586 9.75267e-21 0.0327317)
(0.408766 9.58951e-21 0.0326804)
(0.405955 9.54868e-21 0.0326301)
(0.403183 7.97399e-24 0.0325825)
(0.400418 9.36289e-21 0.0325356)
(0.397594 -9.27635e-21 0.0324877)
(0.394814 9.18495e-21 0.0324455)
(0.392013 0 0.0324051)
(0.389234 1.75378e-23 0.0323706)
(0.38648 -1.74943e-23 0.032342)
(0.383733 -8.80978e-21 0.0323194)
(0.38095 8.73968e-21 0.0323019)
(0.378224 -8.6457e-21 0.0322959)
(0.375447 8.54582e-21 0.0322958)
(0.372692 8.47704e-21 0.0323084)
(0.36995 8.36911e-21 0.0323323)
(0.367204 8.15133e-24 0.0323667)
(0.364408 0 0.0324106)
(0.361573 -8.12624e-21 0.0324656)
(0.35877 1.65525e-23 0.0325381)
(0.355923 0 0.0326453)
(0.352413 -7.92618e-21 0.0327969)
(0.554492 -1.25511e-20 0.0353966)
(0.551238 -1.25433e-20 0.035429)
(0.548031 1.2466e-20 0.0354583)
(0.544843 0 0.0354839)
(0.541608 0 0.0355046)
(0.538427 0 0.0355229)
(0.535255 -9.40553e-23 0.0355374)
(0.532074 9.40532e-23 0.035548)
(0.528865 0 0.0355544)
(0.525717 -1.45459e-23 0.0355592)
(0.522581 0 0.0355605)
(0.519446 2.3232e-20 0.0355585)
(0.516268 -8.97005e-23 0.0355518)
(0.513147 -1.13485e-20 0.0355441)
(0.510003 8.8255e-23 0.0355322)
(0.506958 -1.12512e-20 0.0355209)
(0.503791 -6.95981e-25 0.0355019)
(0.500766 -1.72859e-22 0.0354856)
(0.497655 -1.08867e-20 0.0354626)
(0.494592 -1.0875e-20 0.0354393)
(0.491489 -1.07855e-20 0.0354118)
(0.488452 1.06579e-20 0.0353843)
(0.48539 4.16166e-23 0.0353532)
(0.4823 -4.09105e-23 0.0353193)
(0.479264 -1.03926e-20 0.0352857)
(0.476273 1.03423e-20 0.0352515)
(0.473236 -1.02979e-20 0.0352131)
(0.470222 -2.02509e-20 0.0351745)
(0.46717 -3.94764e-23 0.0351331)
(0.464164 9.97167e-21 0.0350929)
(0.46121 1.98143e-20 0.0350532)
(0.458187 -9.80931e-21 0.0350095)
(0.455185 -3.8072e-23 0.034967)
(0.452198 -9.58469e-24 0.0349253)
(0.449219 -9.58635e-24 0.0348842)
(0.44628 9.4372e-21 0.0348454)
(0.443346 -9.36278e-21 0.0348072)
(0.440349 9.73803e-24 0.0347678)
(0.4374 -1.83598e-20 0.0347334)
(0.434425 -1.76643e-23 0.0347003)
(0.431473 1.7689e-23 0.0346722)
(0.428545 8.88079e-21 0.0346492)
(0.425623 8.86132e-21 0.0346312)
(0.422661 -3.41431e-23 0.0346171)
(0.41976 1.69765e-23 0.0346129)
(0.416802 -8.54586e-21 0.0346128)
(0.413869 8.42063e-21 0.0346232)
(0.410948 -8.36072e-21 0.0346423)
(0.408024 -8.05219e-24 0.0346693)
(0.405052 8.80846e-26 0.0347029)
(0.402041 7.95782e-24 0.0347441)
(0.399065 7.99589e-21 0.0347968)
(0.396083 0 0.0348772)
(0.392341 0 0.034976)
(0.602578 9.82626e-23 0.0369586)
(0.599211 1.2445e-20 0.0370127)
(0.59589 1.25259e-20 0.0370631)
(0.592587 -9.6806e-23 0.0371096)
(0.589235 9.53885e-23 0.037151)
(0.585938 -9.53567e-23 0.0371894)
(0.582647 9.39243e-23 0.0372235)
(0.579347 -9.39222e-23 0.0372537)
(0.576017 -9.24888e-23 0.0372794)
(0.572749 -1.17024e-20 0.0373028)
(0.56949 0 0.0373223)
(0.566233 -1.15186e-20 0.0373384)
(0.562929 -1.15946e-20 0.0373497)
(0.559684 -1.14093e-20 0.0373594)
(0.556411 1.13205e-20 0.0373646)
(0.553242 -8.74157e-23 0.0373696)
(0.549942 1.74167e-22 0.0373674)
(0.546792 -1.72652e-22 0.0373668)
(0.543548 1.10586e-20 0.0373598)
(0.540356 1.08749e-20 0.0373519)
(0.537118 1.08274e-20 0.0373397)
(0.53395 -8.34636e-23 0.037327)
(0.530754 3.35977e-25 0.0373106)
(0.527528 4.12092e-23 0.0372913)
(0.524356 4.05192e-23 0.0372716)
(0.52123 -4.05093e-23 0.0372509)
(0.518053 0 0.0372262)
(0.514902 1.01599e-20 0.0372008)
(0.51171 0 0.0371726)
(0.508563 -5.0296e-23 0.037145)