# Probe 0 (0.03 0 0.0073)
# Time        0            
0.2001        -0.365037    
0.2002        -0.36502     
0.2003        -0.365004    
0.2004        -0.365       
0.2005        -0.364976    
0.2006        -0.364969    
0.2007        -0.364946    
0.2008        -0.364942    
0.2009        -0.364918    
0.201         -0.364911    
0.2011        -0.364887    
0.2012        -0.364882    
0.2013        -0.364859    
0.2014        -0.364851    
0.2015        -0.364828    
0.2016        -0.364823    
0.2017        -0.364799    
0.2018        -0.364792    
0.2019        -0.364768    
0.202         -0.364762    
0.2021        -0.364738    
0.2022        -0.364731    
0.2023        -0.364707    
0.2024        -0.364701    
0.2025        -0.364677    
0.2026        -0.36467     
0.2027        -0.364646    
0.2028        -0.36464     
0.2029        -0.364616    
0.203         -0.364608    
0.2031        -0.364584    
0.2032        -0.364578    
0.2033        -0.364553    
0.2034        -0.364546    
0.2035        -0.364522    
0.2036        -0.364516    
0.2037        -0.364491    
0.2038        -0.364484    
0.2039        -0.364459    
0.204         -0.364452    
0.2041        -0.364427    
0.2042        -0.36442     
0.2043        -0.364395    
0.2044        -0.364388    
0.2045        -0.364363    
0.2046        -0.364356    
0.2047        -0.364331    
0.2048        -0.364324    
0.2049        -0.364299    
0.205         -0.364291    
0.2051        -0.364267    
0.2052        -0.364259    
0.2053        -0.364234    
0.2054        -0.364226    
0.2055        -0.364201    
0.2056        -0.364193    
0.2057        -0.364168    
0.2058        -0.36416     
0.2059        -0.364135    
0.206         -0.364127    
0.2061        -0.364102    
0.2062        -0.364094    
0.2063        -0.364069    
0.2064        -0.364061    
0.2065        -0.364036    
0.2066        -0.364027    
0.2067        -0.364003    
0.2068        -0.363995    
0.2069        -0.36397     
0.207         -0.363961    
0.2071        -0.363936    
0.2072        -0.363927    
0.2073        -0.363903    
0.2074        -0.363893    
0.2075        -0.363868    
0.2076        -0.363859    
0.2077        -0.363834    
0.2078        -0.363824    
0.2079        -0.3638      
0.208         -0.36379     
0.2081        -0.363766    
0.2082        -0.363755    
0.2083        -0.363731    
0.2084        -0.363721    
0.2085        -0.363698    
0.2086        -0.363687    
0.2087        -0.363663    
0.2088        -0.363652    
0.2089        -0.363629    
0.209         -0.363617    
0.2091        -0.363594    
0.2092        -0.363582    
0.2093        -0.36356     
0.2094        -0.363547    
0.2095        -0.363524    
0.2096        -0.363512    
0.2097        -0.363489    
0.2098        -0.363477    
0.2099        -0.363454    
0.21          -0.363441    
0.2101        -0.363419    
0.2102        -0.363404    
0.2103        -0.363382    
0.2104        -0.363368    
0.2105        -0.363347    
0.2106        -0.363331    
0.2107        -0.363309    
0.2108        -0.363292    
0.2109        -0.363273    
0.211         -0.363256    
0.2111        -0.363237    
0.2112        -0.363219    
0.2113        -0.3632      
0.2114        -0.363183    
0.2115        -0.363164    
0.2116        -0.363147    
0.2117        -0.363127    
0.2118        -0.36311     
0.2119        -0.363091    
0.212         -0.363073    
0.2121        -0.363052    
0.2122        -0.363035    
0.2123        -0.363015    
0.2124        -0.362999    
0.2125        -0.362978    
0.2126        -0.362961    
0.2127        -0.362941    
0.2128        -0.362925    
0.2129        -0.362904    
0.213         -0.362887    
0.2131        -0.362867    
0.2132        -0.36285     
0.2133        -0.362829    
0.2134        -0.362813    
0.2135        -0.362791    
0.2136        -0.362775    
0.2137        -0.362754    
0.2138        -0.362737    
0.2139        -0.362715    
0.214         -0.362699    
0.2141        -0.362677    
0.2142        -0.362661    
0.2143        -0.362639    
0.2144        -0.362623    
0.2145        -0.362601    
0.2146        -0.362584    
0.2147        -0.362562    
0.2148        -0.362546    
0.2149        -0.362524    
0.215         -0.362507    
0.2151        -0.362485    
0.2152        -0.362469    
0.2153        -0.362446    
0.2154        -0.36243     
0.2155        -0.362407    
0.2156        -0.362391    
0.2157        -0.362369    
0.2158        -0.362353    
0.2159        -0.36233     
0.216         -0.362313    
0.2161        -0.36229     
0.2162        -0.362274    
0.2163        -0.362251    
0.2164        -0.362235    
0.2165        -0.362211    
0.2166        -0.362195    
0.2167        -0.362172    
0.2168        -0.362156    
0.2169        -0.362132    
0.217         -0.362116    
0.2171        -0.362092    
0.2172        -0.362077    
0.2173        -0.362053    
0.2174        -0.362037    
0.2175        -0.362012    
0.2176        -0.361996    
0.2177        -0.361972    
0.2178        -0.361956    
0.2179        -0.361932    
0.218         -0.361916    
0.2181        -0.361892    
0.2182        -0.361876    
0.2183        -0.361851    
0.2184        -0.361835    
0.2185        -0.361811    
0.2186        -0.361795    
0.2187        -0.36177     
0.2188        -0.361754    
0.2189        -0.361729    
0.219         -0.361713    
0.2191        -0.361688    
0.2192        -0.361673    
0.2193        -0.361648    
0.2194        -0.361632    
0.2195        -0.361607    
0.2196        -0.361591    
0.2197        -0.361565    
0.2198        -0.361549    
0.2199        -0.361524    
0.22          -0.361507    
0.2201        -0.361481    
0.2202        -0.361459    
0.2203        -0.361444    
0.2204        -0.361421    
0.2205        -0.361396    
0.2206        -0.361381    
0.2207        -0.361355    
0.2208        -0.361338    
0.2209        -0.361313    
0.221         -0.361297    
0.2211        -0.361271    
0.2212        -0.361254    
0.2213        -0.361229    
0.2214        -0.361212    
0.2215        -0.361186    
0.2216        -0.36117     
0.2217        -0.361144    
0.2218        -0.361128    
0.2219        -0.361102    
0.222         -0.361084    
0.2221        -0.361059    
0.2222        -0.361042    
0.2223        -0.361016    
0.2224        -0.360999    
0.2225        -0.360973    
0.2226        -0.360957    
0.2227        -0.36093     
0.2228        -0.360914    
0.2229        -0.360888    
0.223         -0.360871    
0.2231        -0.360845    
0.2232        -0.360827    
0.2233        -0.360801    
0.2234        -0.360785    
0.2235        -0.360758    
0.2236        -0.360741    
0.2237        -0.360715    
0.2238        -0.360698    
0.2239        -0.360672    
0.224         -0.360654    
0.2241        -0.360628    
0.2242        -0.360611    
0.2243        -0.360584    
0.2244        -0.360567    
0.2245        -0.360541    
0.2246        -0.360524    
0.2247        -0.360497    
0.2248        -0.36048     
0.2249        -0.360453    
0.225         -0.360436    
0.2251        -0.360409    
0.2252        -0.360392    
0.2253        -0.360365    
0.2254        -0.360348    
0.2255        -0.36032     
0.2256        -0.360304    
0.2257        -0.360277    
0.2258        -0.360259    
0.2259        -0.360232    
0.226         -0.360215    
0.2261        -0.360187    
0.2262        -0.360171    
0.2263        -0.360143    
0.2264        -0.360123    
0.2265        -0.360104    
0.2266        -0.360081    
0.2267        -0.360053    
0.2268        -0.360037    
0.2269        -0.360009    
0.227         -0.359988    
0.2271        -0.359969    
0.2272        -0.359945    
0.2273        -0.359917    
0.2274        -0.359901    
0.2275        -0.359873    
0.2276        -0.359852    
0.2277        -0.359832    
0.2278        -0.359809    
0.2279        -0.359781    
0.228         -0.359761    
0.2281        -0.359742    
0.2282        -0.359719    
0.2283        -0.35969     
0.2284        -0.359669    
0.2285        -0.359649    
0.2286        -0.359627    
0.2287        -0.359599    
0.2288        -0.359578    
0.2289        -0.359558    
0.229         -0.359535    
0.2291        -0.359506    
0.2292        -0.359487    
0.2293        -0.359465    
0.2294        -0.359443    
0.2295        -0.359413    
0.2296        -0.359398    
0.2297        -0.359367    
0.2298        -0.359352    
0.2299        -0.35932     
0.23          -0.359303    
0.2301        -0.359277    
0.2302        -0.359259    
0.2303        -0.359225    
0.2304        -0.359214    
0.2305        -0.35918     
0.2306        -0.359163    
0.2307        -0.359137    
0.2308        -0.359119    
0.2309        -0.359086    
0.231         -0.359073    
0.2311        -0.35904     
0.2312        -0.359022    
0.2313        -0.358997    
0.2314        -0.358977    
0.2315        -0.358945    
0.2316        -0.358931    
0.2317        -0.358899    
0.2318        -0.35888     
0.2319        -0.358856    
0.232         -0.358835    
0.2321        -0.358803    
0.2322        -0.358789    
0.2323        -0.358757    
0.2324        -0.358738    
0.2325        -0.358714    
0.2326        -0.358693    
0.2327        -0.358661    
0.2328        -0.358645    
0.2329        -0.358614    
0.233         -0.358595    
0.2331        -0.358571    
0.2332        -0.35855     
0.2333        -0.358518    
0.2334        -0.358498    
0.2335        -0.358475    
0.2336        -0.358454    
0.2337        -0.358423    
0.2338        -0.358406    
0.2339        -0.358376    
0.234         -0.358355    
0.2341        -0.358331    
0.2342        -0.358308    
0.2343        -0.358277    
0.2344        -0.358255    
0.2345        -0.358232    
0.2346        -0.35821     
0.2347        -0.358179    
0.2348        -0.358159    
0.2349        -0.358136    
0.235         -0.358113    
0.2351        -0.358083    
0.2352        -0.358061    
0.2353        -0.358039    
0.2354        -0.358015    
0.2355        -0.357985    
0.2356        -0.357963    
0.2357        -0.357941    
0.2358        -0.357917    
0.2359        -0.357887    
0.236         -0.357865    
0.2361        -0.357843    
0.2362        -0.357818    
0.2363        -0.357789    
0.2364        -0.357766    
0.2365        -0.357745    
0.2366        -0.35772     
0.2367        -0.357691    
0.2368        -0.357667    
0.2369        -0.357646    
0.237         -0.357621    
0.2371        -0.357592    
0.2372        -0.357568    
0.2373        -0.357547    
0.2374        -0.357522    
0.2375        -0.357493    
0.2376        -0.357469    
0.2377        -0.357448    
0.2378        -0.357422    
0.2379        -0.357394    
0.238         -0.357369    
0.2381        -0.357348    
0.2382        -0.357322    
0.2383        -0.357294    
0.2384        -0.357269    
0.2385        -0.357248    
0.2386        -0.357222    
0.2387        -0.357194    
0.2388        -0.357169    
0.2389        -0.357148    
0.239         -0.357122    
0.2391        -0.357094    
0.2392        -0.357069    
0.2393        -0.357047    
0.2394        -0.357021    
0.2395        -0.356992    
0.2396        -0.356967    
0.2397        -0.356946    
0.2398        -0.35692     
0.2399        -0.356891    
0.24          -0.356866    
0.2401        -0.356844    
0.2402        -0.356817    
0.2403        -0.356789    
0.2404        -0.356764    
0.2405        -0.356742    
0.2406        -0.356716    
0.2407        -0.356688    
0.2408        -0.356663    
0.2409        -0.356642    
0.241         -0.356614    
0.2411        -0.356586    
0.2412        -0.35656     
0.2413        -0.356538    
0.2414        -0.356511    
0.2415        -0.356483    
0.2416        -0.356458    
0.2417        -0.356436    
0.2418        -0.356409    
0.2419        -0.35638     
0.242         -0.356355    
0.2421        -0.356332    
0.2422        -0.356305    
0.2423        -0.356277    
0.2424        -0.356252    
0.2425        -0.35623     
0.2426        -0.356202    
0.2427        -0.356174    
0.2428        -0.356148    
0.2429        -0.356125    
0.243         -0.356098    
0.2431        -0.35607     
0.2432        -0.356044    
0.2433        -0.356022    
0.2434        -0.355995    
0.2435        -0.355966    
0.2436        -0.35594     
0.2437        -0.355917    
0.2438        -0.35589     
0.2439        -0.355862    
0.244         -0.355836    
0.2441        -0.355813    
0.2442        -0.355786    
0.2443        -0.355757    
0.2444        -0.355731    
0.2445        -0.355704    
0.2446        -0.355684    
0.2447        -0.355655    
0.2448        -0.355627    
0.2449        -0.355599    
0.245         -0.355573    
0.2451        -0.355551    
0.2452        -0.355523    
0.2453        -0.355495    
0.2454        -0.355468    
0.2455        -0.355441    
0.2456        -0.35542     
0.2457        -0.355391    
0.2458        -0.355363    
0.2459        -0.355335    
0.246         -0.355309    
0.2461        -0.355286    
0.2462        -0.355259    
0.2463        -0.35523     
0.2464        -0.355203    
0.2465        -0.355176    
0.2466        -0.355154    
0.2467        -0.355125    
0.2468        -0.355097    
0.2469        -0.355069    
0.247         -0.355043    
0.2471        -0.35502     
0.2472        -0.354992    
0.2473        -0.354963    
0.2474        -0.354936    
0.2475        -0.354909    
0.2476        -0.354887    
0.2477        -0.354857    
0.2478        -0.35483     
0.2479        -0.354801    
0.248         -0.354775    
0.2481        -0.354748    
0.2482        -0.354726    
0.2483        -0.354696    
0.2484        -0.354668    
0.2485        -0.354639    
0.2486        -0.354613    
0.2487        -0.35459     
0.2488        -0.354563    
0.2489        -0.354534    
0.249         -0.354507    
0.2491        -0.354479    
0.2492        -0.354454    
0.2493        -0.354426    
0.2494        -0.3544      
0.2495        -0.354372    
0.2496        -0.354346    
0.2497        -0.354317    
0.2498        -0.354291    
0.2499        -0.354263    
0.25          -0.354236    
0.2501        -0.354208    
0.2502        -0.354182    
0.2503        -0.354154    
0.2504        -0.354128    
0.2505        -0.354099    
0.2506        -0.354073    
0.2507        -0.354045    
0.2508        -0.354018    
0.2509        -0.35399     
0.251         -0.353963    
0.2511        -0.353935    
0.2512        -0.353908    
0.2513        -0.35388     
0.2514        -0.353854    
0.2515        -0.353826    
0.2516        -0.353799    
0.2517        -0.353771    
0.2518        -0.353744    
0.2519        -0.353716    
0.252         -0.353689    
0.2521        -0.353661    
0.2522        -0.353633    
0.2523        -0.353605    
0.2524        -0.353578    
0.2525        -0.35355     
0.2526        -0.353523    
0.2527        -0.353495    
0.2528        -0.353468    
0.2529        -0.35344     
0.253         -0.353413    
0.2531        -0.353385    
0.2532        -0.353357    
0.2533        -0.353329    
0.2534        -0.353301    
0.2535        -0.353273    
0.2536        -0.353245    
0.2537        -0.353217    
0.2538        -0.353189    
0.2539        -0.35316     
0.254         -0.353133    
0.2541        -0.353104    
0.2542        -0.353077    
0.2543        -0.353048    
0.2544        -0.353021    
0.2545        -0.352993    
0.2546        -0.352965    
0.2547        -0.352937    
0.2548        -0.352909    
0.2549        -0.35288     
0.255         -0.352853    
0.2551        -0.352824    
0.2552        -0.352796    
0.2553        -0.352768    
0.2554        -0.35274     
0.2555        -0.352712    
0.2556        -0.352684    
0.2557        -0.352656    
0.2558        -0.352628    
0.2559        -0.352599    
0.256         -0.352572    
0.2561        -0.352543    
0.2562        -0.352515    
0.2563        -0.352486    
0.2564        -0.352458    
0.2565        -0.352429    
0.2566        -0.352401    
0.2567        -0.352372    
0.2568        -0.352344    
0.2569        -0.352316    
0.257         -0.352287    
0.2571        -0.352259    
0.2572        -0.35223     
0.2573        -0.352202    
0.2574        -0.352173    
0.2575        -0.352145    
0.2576        -0.352116    
0.2577        -0.352088    
0.2578        -0.352058    
0.2579        -0.352031    
0.258         -0.352001    
0.2581        -0.351974    
0.2582        -0.351944    
0.2583        -0.351917    
0.2584        -0.351886    
0.2585        -0.351859    
0.2586        -0.351829    
0.2587        -0.351802    
0.2588        -0.351771    
0.2589        -0.351744    
0.259         -0.351713    
0.2591        -0.351687    
0.2592        -0.351655    
0.2593        -0.351629    
0.2594        -0.351598    
0.2595        -0.351571    
0.2596        -0.35154     
0.2597        -0.351514    
0.2598        -0.351482    
0.2599        -0.351456    
0.26          -0.351425    
0.2601        -0.351397    
0.2602        -0.351367    
0.2603        -0.351339    
0.2604        -0.351309    
0.2605        -0.351281    
0.2606        -0.35125     
0.2607        -0.351223    
0.2608        -0.351192    
0.2609        -0.351165    
0.261         -0.351134    
0.2611        -0.351107    
0.2612        -0.351076    
0.2613        -0.351048    
0.2614        -0.351018    
0.2615        -0.35099     
0.2616        -0.350959    
0.2617        -0.350931    
0.2618        -0.3509      
0.2619        -0.350872    
0.262         -0.350842    
0.2621        -0.350813    
0.2622        -0.350783    
0.2623        -0.350754    
0.2624        -0.350724    
0.2625        -0.350696    
0.2626        -0.350665    
0.2627        -0.350636    
0.2628        -0.350606    
0.2629        -0.350577    
0.263         -0.350547    
0.2631        -0.350518    
0.2632        -0.350488    
0.2633        -0.350459    
0.2634        -0.350429    
0.2635        -0.350399    
0.2636        -0.350369    
0.2637        -0.35034     
0.2638        -0.35031     
0.2639        -0.35028     
0.264         -0.35025     
0.2641        -0.350221    
0.2642        -0.350191    
0.2643        -0.350161    
0.2644        -0.350131    
0.2645        -0.350101    
0.2646        -0.350071    
0.2647        -0.350041    
0.2648        -0.350011    
0.2649        -0.349981    
0.265         -0.34995     
0.2651        -0.349922    
0.2652        -0.349893    
0.2653        -0.349863    
0.2654        -0.349834    
0.2655        -0.349803    
0.2656        -0.349773    
0.2657        -0.349743    
0.2658        -0.349713    
0.2659        -0.349682    
0.266         -0.349653    
0.2661        -0.349622    
0.2662        -0.349592    
0.2663        -0.349562    
0.2664        -0.349532    
0.2665        -0.349498    
0.2666        -0.34947     
0.2667        -0.349441    
0.2668        -0.349412    
0.2669        -0.349381    
0.267         -0.349347    
0.2671        -0.349317    
0.2672        -0.34929     
0.2673        -0.349259    
0.2674        -0.349228    
0.2675        -0.349197    
0.2676        -0.349169    
0.2677        -0.349134    
0.2678        -0.349107    
0.2679        -0.349076    
0.268         -0.349045    
0.2681        -0.349014    
0.2682        -0.348986    
0.2683        -0.34895     
0.2684        -0.348923    
0.2685        -0.348892    
0.2686        -0.348861    
0.2687        -0.348829    
0.2688        -0.348802    
0.2689        -0.348766    
0.269         -0.348739    
0.2691        -0.348707    
0.2692        -0.348676    
0.2693        -0.348644    
0.2694        -0.348618    
0.2695        -0.34858     
0.2696        -0.348554    
0.2697        -0.348522    
0.2698        -0.348491    
0.2699        -0.348458    
0.27          -0.348433    
0.2701        -0.348394    
0.2702        -0.348369    
0.2703        -0.348336    
0.2704        -0.348305    
0.2705        -0.348272    
0.2706        -0.348246    
0.2707        -0.348207    
0.2708        -0.348182    
0.2709        -0.348149    
0.271         -0.348117    
0.2711        -0.348084    
0.2712        -0.348059    
0.2713        -0.348019    
0.2714        -0.347995    
0.2715        -0.347961    
0.2716        -0.347929    
0.2717        -0.347895    
0.2718        -0.347871    
0.2719        -0.347831    
0.272         -0.347807    
0.2721        -0.347772    
0.2722        -0.34774     
0.2723        -0.347706    
0.2724        -0.347682    
0.2725        -0.347641    
0.2726        -0.347618    
0.2727        -0.347578    
0.2728        -0.347555    
0.2729        -0.347515    
0.273         -0.347492    
0.2731        -0.347451    
0.2732        -0.347428    
0.2733        -0.347387    
0.2734        -0.347365    
0.2735        -0.347323    
0.2736        -0.347301    
0.2737        -0.347259    
0.2738        -0.347238    
0.2739        -0.347195    
0.274         -0.347174    
0.2741        -0.34713     
0.2742        -0.34711     
0.2743        -0.347066    
0.2744        -0.347046    
0.2745        -0.347001    
0.2746        -0.346982    
0.2747        -0.346937    
0.2748        -0.346918    
0.2749        -0.346872    
0.275         -0.346854    
0.2751        -0.346807    
0.2752        -0.346789    
0.2753        -0.346742    
0.2754        -0.346725    
0.2755        -0.346677    
0.2756        -0.34666     
0.2757        -0.346612    
0.2758        -0.346595    
0.2759        -0.346547    
0.276         -0.34653     
0.2761        -0.346482    
0.2762        -0.346465    
0.2763        -0.346416    
0.2764        -0.3464      
0.2765        -0.346351    
0.2766        -0.346335    
0.2767        -0.346285    
0.2768        -0.346269    
0.2769        -0.34622     
0.277         -0.346204    
0.2771        -0.346154    
0.2772        -0.346138    
0.2773        -0.346088    
0.2774        -0.346072    
0.2775        -0.346022    
0.2776        -0.346006    
0.2777        -0.345956    
0.2778        -0.34594     
0.2779        -0.34589     
0.278         -0.345874    
0.2781        -0.345824    
0.2782        -0.345808    
0.2783        -0.345757    
0.2784        -0.345742    
0.2785        -0.345691    
0.2786        -0.345675    
0.2787        -0.345624    
0.2788        -0.345609    
0.2789        -0.345557    
0.279         -0.345542    
0.2791        -0.34549     
0.2792        -0.345475    
0.2793        -0.345423    
0.2794        -0.345408    
0.2795        -0.345356    
0.2796        -0.345341    
0.2797        -0.345289    
0.2798        -0.345274    
0.2799        -0.345222    
0.28          -0.345206    
0.2801        -0.345155    
0.2802        -0.345139    
0.2803        -0.345087    
0.2804        -0.345072    
0.2805        -0.34502     
0.2806        -0.345004    
0.2807        -0.344952    
0.2808        -0.344936    
0.2809        -0.344885    
0.281         -0.344869    
0.2811        -0.344816    
0.2812        -0.3448      
0.2813        -0.344748    
0.2814        -0.344732    
0.2815        -0.34468     
0.2816        -0.344664    
0.2817        -0.344611    
0.2818        -0.344595    
0.2819        -0.344543    
0.282         -0.344527    
0.2821        -0.344473    
0.2822        -0.344458    
0.2823        -0.344405    
0.2824        -0.34439     
0.2825        -0.344337    
0.2826        -0.344321    
0.2827        -0.344268    
0.2828        -0.344252    
0.2829        -0.344199    
0.283         -0.344183    
0.2831        -0.34413     
0.2832        -0.344114    
0.2833        -0.344061    
0.2834        -0.344045    
0.2835        -0.343992    
0.2836        -0.343976    
0.2837        -0.343922    
0.2838        -0.343906    
0.2839        -0.343853    
0.284         -0.343836    
0.2841        -0.343783    
0.2842        -0.343767    
0.2843        -0.343714    
0.2844        -0.343697    
0.2845        -0.343644    
0.2846        -0.343627    
0.2847        -0.343574    
0.2848        -0.343557    
0.2849        -0.343504    
0.285         -0.343487    
0.2851        -0.343434    
0.2852        -0.343417    
0.2853        -0.343365    
0.2854        -0.343347    
0.2855        -0.343295    
0.2856        -0.343277    
0.2857        -0.343225    
0.2858        -0.343207    
0.2859        -0.343155    
0.286         -0.343137    
0.2861        -0.343084    
0.2862        -0.343066    
0.2863        -0.343014    
0.2864        -0.342995    
0.2865        -0.342943    
0.2866        -0.342925    
0.2867        -0.342872    
0.2868        -0.342854    
0.2869        -0.342802    
0.287         -0.342783    
0.2871        -0.342731    
0.2872        -0.342713    
0.2873        -0.34266     
0.2874        -0.342642    
0.2875        -0.342589    
0.2876        -0.342571    
0.2877        -0.342518    
0.2878        -0.3425      
0.2879        -0.342447    
0.288         -0.342429    
0.2881        -0.342376    
0.2882        -0.342357    
0.2883        -0.342305    
0.2884        -0.342286    
0.2885        -0.342234    
0.2886        -0.342215    
0.2887        -0.342163    
0.2888        -0.342144    
0.2889        -0.342092    
0.289         -0.342073    
0.2891        -0.342021    
0.2892        -0.342002    
0.2893        -0.34195     
0.2894        -0.34193     
0.2895        -0.341879    
0.2896        -0.341859    
0.2897        -0.341807    
0.2898        -0.341788    
0.2899        -0.341736    
0.29          -0.341716    
0.2901        -0.341665    
0.2902        -0.341645    
0.2903        -0.341594    
0.2904        -0.341574    
0.2905        -0.341522    
0.2906        -0.341502    
0.2907        -0.341451    
0.2908        -0.341431    
0.2909        -0.341379    
0.291         -0.341359    
0.2911        -0.341308    
0.2912        -0.341289    
0.2913        -0.341239    
0.2914        -0.341216    
0.2915        -0.341171    
0.2916        -0.341143    
0.2917        -0.3411      
0.2918        -0.341072    
0.2919        -0.341029    
0.292         -0.341001    
0.2921        -0.340958    
0.2922        -0.34093     
0.2923        -0.340887    
0.2924        -0.340859    
0.2925        -0.340815    
0.2926        -0.340787    
0.2927        -0.340744    
0.2928        -0.340717    
0.2929        -0.340674    
0.293         -0.340646    
0.2931        -0.340603    
0.2932        -0.340575    
0.2933        -0.340533    
0.2934        -0.340504    
0.2935        -0.340462    
0.2936        -0.340434    
0.2937        -0.340392    
0.2938        -0.340363    
0.2939        -0.340322    
0.294         -0.340293    
0.2941        -0.340252    
0.2942        -0.340223    
0.2943        -0.340182    
0.2944        -0.340153    
0.2945        -0.340112    
0.2946        -0.340083    
0.2947        -0.340042    
0.2948        -0.340013    
0.2949        -0.339972    
0.295         -0.339944    
0.2951        -0.339903    
0.2952        -0.339874    
0.2953        -0.339834    
0.2954        -0.339805    
0.2955        -0.339765    
0.2956        -0.339736    
0.2957        -0.339695    
0.2958        -0.339666    
0.2959        -0.339626    
0.296         -0.339598    
0.2961        -0.339558    
0.2962        -0.339529    
0.2963        -0.33949     
0.2964        -0.339461    
0.2965        -0.339421    
0.2966        -0.339392    
0.2967        -0.339353    
0.2968        -0.339325    
0.2969        -0.339285    
0.297         -0.339257    
0.2971        -0.339217    
0.2972        -0.33919     
0.2973        -0.33915     
0.2974        -0.339122    
0.2975        -0.339083    
0.2976        -0.339055    
0.2977        -0.339016    
0.2978        -0.338988    
0.2979        -0.338949    
0.298         -0.338921    
0.2981        -0.338882    
0.2982        -0.338855    
0.2983        -0.338816    
0.2984        -0.338789    
0.2985        -0.33875     
0.2986        -0.338723    
0.2987        -0.338684    
0.2988        -0.338657    
0.2989        -0.338619    
0.299         -0.338592    
0.2991        -0.338557    
0.2992        -0.338524    
0.2993        -0.338489    
0.2994        -0.338462    
0.2995        -0.338427    
0.2996        -0.338395    
0.2997        -0.33836     
0.2998        -0.338333    
0.2999        -0.338298    
0.3           -0.338267    
0.3001        -0.338233    
0.3002        -0.338206    
0.3003        -0.338171    
0.3004        -0.33814     
0.3005        -0.338106    
0.3006        -0.338083    
0.3007        -0.338039    
0.3008        -0.338017    
0.3009        -0.337982    
0.301         -0.337953    
0.3011        -0.337918    
0.3012        -0.337895    
0.3013        -0.337853    
0.3014        -0.33783     
0.3015        -0.337796    
0.3016        -0.337768    
0.3017        -0.337734    
0.3018        -0.33771     
0.3019        -0.33767     
0.302         -0.337647    
0.3021        -0.337613    
0.3022        -0.337589    
0.3023        -0.337548    
0.3024        -0.337526    
0.3025        -0.337492    
0.3026        -0.337469    
0.3027        -0.337434    
0.3028        -0.337405    
0.3029        -0.337372    
0.303         -0.337349    
0.3031        -0.337315    
0.3032        -0.337292    
0.3033        -0.337257    
0.3034        -0.337232    
0.3035        -0.337197    
0.3036        -0.337173    
0.3037        -0.337139    
0.3038        -0.337116    
0.3039        -0.337081    
0.304         -0.337059    
0.3041        -0.337025    
0.3042        -0.337002    
0.3043        -0.336968    
0.3044        -0.336945    
0.3045        -0.336912    
0.3046        -0.336889    
0.3047        -0.336855    
0.3048        -0.336833    
0.3049        -0.3368      
0.305         -0.336778    
0.3051        -0.336744    
0.3052        -0.336722    
0.3053        -0.336689    
0.3054        -0.336667    
0.3055        -0.336635    
0.3056        -0.336613    
0.3057        -0.336583    
0.3058        -0.336559    
0.3059        -0.336525    
0.306         -0.336502    
0.3061        -0.336474    
0.3062        -0.33645     
0.3063        -0.336417    
0.3064        -0.336399    
0.3065        -0.336365    
0.3066        -0.336342    
0.3067        -0.336315    
0.3068        -0.336291    
0.3069        -0.336258    