# Probe 0 (0.03 0 0.0073)
# Time        0            
0.2001        (0.631457 -2.85148e-20 -0.0142517)
0.2002        (0.631419 -2.85134e-20 -0.0142479)
0.2003        (0.631381 -2.85122e-20 -0.0142441)
0.2004        (0.631343 -2.85119e-20 -0.0142402)
0.2005        (0.631305 -2.851e-20 -0.0142364)
0.2006        (0.631267 -2.85095e-20 -0.0142325)
0.2007        (0.631229 -2.85076e-20 -0.0142287)
0.2008        (0.631191 -2.85074e-20 -0.0142248)
0.2009        (0.631154 -2.85055e-20 -0.014221)
0.201         (0.631116 -2.85049e-20 -0.0142171)
0.2011        (0.631078 -2.85031e-20 -0.0142133)
0.2012        (0.63104 -2.85028e-20 -0.0142094)
0.2013        (0.631002 -2.85009e-20 -0.0142056)
0.2014        (0.630965 -2.85004e-20 -0.0142017)
0.2015        (0.630927 -2.84985e-20 -0.0141979)
0.2016        (0.630889 -2.84981e-20 -0.0141941)
0.2017        (0.630851 -2.84963e-20 -0.0141902)
0.2018        (0.630814 -2.84957e-20 -0.0141864)
0.2019        (0.630776 -2.84939e-20 -0.0141825)
0.202         (0.630738 -2.84935e-20 -0.0141787)
0.2021        (0.6307 -2.84916e-20 -0.0141749)
0.2022        (0.630663 -2.8491e-20 -0.014171)
0.2023        (0.630625 -2.84892e-20 -0.0141672)
0.2024        (0.630588 -2.84887e-20 -0.0141634)
0.2025        (0.63055 -2.84869e-20 -0.0141595)
0.2026        (0.630512 -2.84863e-20 -0.0141557)
0.2027        (0.630475 -2.84844e-20 -0.0141518)
0.2028        (0.630437 -2.8484e-20 -0.014148)
0.2029        (0.6304 -2.84821e-20 -0.0141442)
0.203         (0.630362 -2.84816e-20 -0.0141403)
0.2031        (0.630325 -2.84797e-20 -0.0141365)
0.2032        (0.630287 -2.84792e-20 -0.0141327)
0.2033        (0.63025 -2.84773e-20 -0.0141288)
0.2034        (0.630212 -2.84768e-20 -0.014125)
0.2035        (0.630175 -2.84749e-20 -0.0141212)
0.2036        (0.630137 -2.84744e-20 -0.0141173)
0.2037        (0.6301 -2.84725e-20 -0.0141135)
0.2038        (0.630063 -2.8472e-20 -0.0141097)
0.2039        (0.630025 -2.847e-20 -0.0141058)
0.204         (0.629988 -2.84695e-20 -0.014102)
0.2041        (0.629951 -2.84675e-20 -0.0140982)
0.2042        (0.629913 -2.8467e-20 -0.0140944)
0.2043        (0.629876 -2.84651e-20 -0.0140905)
0.2044        (0.629839 -2.84645e-20 -0.0140867)
0.2045        (0.629801 -2.84626e-20 -0.0140829)
0.2046        (0.629764 -2.8462e-20 -0.0140791)
0.2047        (0.629727 -2.84601e-20 -0.0140752)
0.2048        (0.62969 -2.84595e-20 -0.0140714)
0.2049        (0.629653 -2.84576e-20 -0.0140676)
0.205         (0.629615 -2.8457e-20 -0.0140638)
0.2051        (0.629578 -2.84551e-20 -0.0140599)
0.2052        (0.629541 -2.84545e-20 -0.0140561)
0.2053        (0.629504 -2.84526e-20 -0.0140523)
0.2054        (0.629467 -2.8452e-20 -0.0140485)
0.2055        (0.62943 -2.845e-20 -0.0140446)
0.2056        (0.629393 -2.84495e-20 -0.0140408)
0.2057        (0.629356 -2.84475e-20 -0.014037)
0.2058        (0.629319 -2.84469e-20 -0.0140332)
0.2059        (0.629281 -2.84449e-20 -0.0140294)
0.206         (0.629244 -2.84444e-20 -0.0140256)
0.2061        (0.629207 -2.84424e-20 -0.0140217)
0.2062        (0.62917 -2.84418e-20 -0.0140179)
0.2063        (0.629134 -2.84398e-20 -0.0140141)
0.2064        (0.629097 -2.84392e-20 -0.0140103)
0.2065        (0.62906 -2.84373e-20 -0.0140065)
0.2066        (0.629023 -2.84366e-20 -0.0140026)
0.2067        (0.628986 -2.84347e-20 -0.0139988)
0.2068        (0.628949 -2.84341e-20 -0.013995)
0.2069        (0.628912 -2.84321e-20 -0.0139912)
0.207         (0.628875 -2.84314e-20 -0.0139874)
0.2071        (0.628838 -2.84295e-20 -0.0139836)
0.2072        (0.628802 -2.84288e-20 -0.0139797)
0.2073        (0.628765 -2.8427e-20 -0.0139759)
0.2074        (0.628728 -2.84262e-20 -0.0139721)
0.2075        (0.628691 -2.84243e-20 -0.0139683)
0.2076        (0.628655 -2.84235e-20 -0.0139645)
0.2077        (0.628618 -2.84216e-20 -0.0139607)
0.2078        (0.628581 -2.84209e-20 -0.0139569)
0.2079        (0.628545 -2.8419e-20 -0.0139531)
0.208         (0.628508 -2.84182e-20 -0.0139492)
0.2081        (0.628471 -2.84163e-20 -0.0139454)
0.2082        (0.628435 -2.84155e-20 -0.0139416)
0.2083        (0.628398 -2.84137e-20 -0.0139378)
0.2084        (0.628361 -2.84129e-20 -0.013934)
0.2085        (0.628325 -2.84111e-20 -0.0139302)
0.2086        (0.628288 -2.84102e-20 -0.0139264)
0.2087        (0.628252 -2.84084e-20 -0.0139226)
0.2088        (0.628215 -2.84075e-20 -0.0139188)
0.2089        (0.628179 -2.84058e-20 -0.013915)
0.209         (0.628142 -2.84049e-20 -0.0139112)
0.2091        (0.628106 -2.8403e-20 -0.0139074)
0.2092        (0.628069 -2.84021e-20 -0.0139036)
0.2093        (0.628033 -2.84004e-20 -0.0138998)
0.2094        (0.627997 -2.83994e-20 -0.013896)
0.2095        (0.62796 -2.83976e-20 -0.0138922)
0.2096        (0.627924 -2.83967e-20 -0.0138884)
0.2097        (0.627887 -2.83949e-20 -0.0138846)
0.2098        (0.627851 -2.8394e-20 -0.0138808)
0.2099        (0.627815 -2.83922e-20 -0.013877)
0.21          (0.627779 -2.83912e-20 -0.0138732)
0.2101        (0.627742 -2.83895e-20 -0.0138694)
0.2102        (0.627706 -2.83884e-20 -0.0138657)
0.2103        (0.62767 -2.83866e-20 -0.0138619)
0.2104        (0.627633 -2.83855e-20 -0.0138581)
0.2105        (0.627597 -2.83839e-20 -0.0138543)
0.2106        (0.627561 -2.83827e-20 -0.0138505)
0.2107        (0.627525 -2.8381e-20 -0.0138467)
0.2108        (0.627489 -2.83797e-20 -0.0138429)
0.2109        (0.627453 -2.83782e-20 -0.0138392)
0.211         (0.627416 -2.83769e-20 -0.0138354)
0.2111        (0.62738 -2.83754e-20 -0.0138316)
0.2112        (0.627344 -2.8374e-20 -0.0138278)
0.2113        (0.627308 -2.83725e-20 -0.013824)
0.2114        (0.627272 -2.83712e-20 -0.0138203)
0.2115        (0.627236 -2.83697e-20 -0.0138165)
0.2116        (0.6272 -2.83684e-20 -0.0138127)
0.2117        (0.627164 -2.83669e-20 -0.0138089)
0.2118        (0.627128 -2.83656e-20 -0.0138051)
0.2119        (0.627092 -2.8364e-20 -0.0138014)
0.212         (0.627056 -2.83627e-20 -0.0137976)
0.2121        (0.62702 -2.83611e-20 -0.0137938)
0.2122        (0.626984 -2.83597e-20 -0.01379)
0.2123        (0.626948 -2.83582e-20 -0.0137863)
0.2124        (0.626913 -2.83569e-20 -0.0137825)
0.2125        (0.626877 -2.83553e-20 -0.0137787)
0.2126        (0.626841 -2.8354e-20 -0.0137749)
0.2127        (0.626805 -2.83525e-20 -0.0137712)
0.2128        (0.626769 -2.83512e-20 -0.0137674)
0.2129        (0.626733 -2.83496e-20 -0.0137636)
0.213         (0.626698 -2.83483e-20 -0.0137599)
0.2131        (0.626662 -2.83467e-20 -0.0137561)
0.2132        (0.626626 -2.83454e-20 -0.0137523)
0.2133        (0.62659 -2.83438e-20 -0.0137486)
0.2134        (0.626555 -2.83425e-20 -0.0137448)
0.2135        (0.626519 -2.83408e-20 -0.013741)
0.2136        (0.626483 -2.83396e-20 -0.0137373)
0.2137        (0.626448 -2.83379e-20 -0.0137335)
0.2138        (0.626412 -2.83366e-20 -0.0137297)
0.2139        (0.626377 -2.8335e-20 -0.013726)
0.214         (0.626341 -2.83337e-20 -0.0137222)
0.2141        (0.626305 -2.8332e-20 -0.0137185)
0.2142        (0.62627 -2.83307e-20 -0.0137147)
0.2143        (0.626234 -2.8329e-20 -0.0137109)
0.2144        (0.626199 -2.83278e-20 -0.0137072)
0.2145        (0.626163 -2.83261e-20 -0.0137034)
0.2146        (0.626128 -2.83248e-20 -0.0136997)
0.2147        (0.626093 -2.83231e-20 -0.0136959)
0.2148        (0.626057 -2.83218e-20 -0.0136922)
0.2149        (0.626022 -2.83201e-20 -0.0136884)
0.215         (0.625986 -2.83188e-20 -0.0136847)
0.2151        (0.625951 -2.83171e-20 -0.0136809)
0.2152        (0.625916 -2.83158e-20 -0.0136772)
0.2153        (0.62588 -2.83141e-20 -0.0136734)
0.2154        (0.625845 -2.83128e-20 -0.0136697)
0.2155        (0.62581 -2.83111e-20 -0.0136659)
0.2156        (0.625774 -2.83098e-20 -0.0136622)
0.2157        (0.625739 -2.83081e-20 -0.0136584)
0.2158        (0.625704 -2.83068e-20 -0.0136547)
0.2159        (0.625669 -2.8305e-20 -0.0136509)
0.216         (0.625633 -2.83038e-20 -0.0136472)
0.2161        (0.625598 -2.8302e-20 -0.0136434)
0.2162        (0.625563 -2.83007e-20 -0.0136397)
0.2163        (0.625528 -2.82989e-20 -0.013636)
0.2164        (0.625493 -2.82977e-20 -0.0136322)
0.2165        (0.625458 -2.82959e-20 -0.0136285)
0.2166        (0.625423 -2.82946e-20 -0.0136248)
0.2167        (0.625388 -2.82928e-20 -0.013621)
0.2168        (0.625353 -2.82916e-20 -0.0136173)
0.2169        (0.625318 -2.82897e-20 -0.0136136)
0.217         (0.625283 -2.82885e-20 -0.0136099)
0.2171        (0.625248 -2.82866e-20 -0.0136061)
0.2172        (0.625213 -2.82854e-20 -0.0136024)
0.2173        (0.625178 -2.82836e-20 -0.0135987)
0.2174        (0.625143 -2.82823e-20 -0.013595)
0.2175        (0.625108 -2.82804e-20 -0.0135912)
0.2176        (0.625073 -2.82792e-20 -0.0135875)
0.2177        (0.625038 -2.82773e-20 -0.0135838)
0.2178        (0.625003 -2.82761e-20 -0.0135801)
0.2179        (0.624968 -2.82742e-20 -0.0135764)
0.218         (0.624934 -2.8273e-20 -0.0135726)
0.2181        (0.624899 -2.82711e-20 -0.0135689)
0.2182        (0.624864 -2.82698e-20 -0.0135652)
0.2183        (0.624829 -2.82679e-20 -0.0135615)
0.2184        (0.624795 -2.82667e-20 -0.0135578)
0.2185        (0.62476 -2.82648e-20 -0.0135541)
0.2186        (0.624725 -2.82635e-20 -0.0135504)
0.2187        (0.62469 -2.82616e-20 -0.0135467)
0.2188        (0.624656 -2.82604e-20 -0.013543)
0.2189        (0.624621 -2.82585e-20 -0.0135393)
0.219         (0.624587 -2.82572e-20 -0.0135356)
0.2191        (0.624552 -2.82553e-20 -0.0135319)
0.2192        (0.624517 -2.82541e-20 -0.0135282)
0.2193        (0.624483 -2.82522e-20 -0.0135245)
0.2194        (0.624448 -2.82509e-20 -0.0135208)
0.2195        (0.624414 -2.8249e-20 -0.0135171)
0.2196        (0.624379 -2.82477e-20 -0.0135134)
0.2197        (0.624345 -2.82457e-20 -0.0135097)
0.2198        (0.62431 -2.82445e-20 -0.013506)
0.2199        (0.624276 -2.82425e-20 -0.0135023)
0.22          (0.624241 -2.82412e-20 -0.0134986)
0.2201        (0.624207 -2.82392e-20 -0.0134949)
0.2202        (0.624173 -2.82375e-20 -0.0134913)
0.2203        (0.624138 -2.82364e-20 -0.0134876)
0.2204        (0.624104 -2.82346e-20 -0.0134839)
0.2205        (0.62407 -2.82326e-20 -0.0134802)
0.2206        (0.624035 -2.82314e-20 -0.0134765)
0.2207        (0.624001 -2.82295e-20 -0.0134728)
0.2208        (0.623967 -2.82281e-20 -0.0134692)
0.2209        (0.623933 -2.82262e-20 -0.0134655)
0.221         (0.623898 -2.82249e-20 -0.0134618)
0.2211        (0.623864 -2.82229e-20 -0.0134581)
0.2212        (0.62383 -2.82216e-20 -0.0134544)
0.2213        (0.623796 -2.82196e-20 -0.0134508)
0.2214        (0.623762 -2.82183e-20 -0.0134471)
0.2215        (0.623728 -2.82164e-20 -0.0134434)
0.2216        (0.623694 -2.8215e-20 -0.0134397)
0.2217        (0.62366 -2.82131e-20 -0.0134361)
0.2218        (0.623625 -2.82118e-20 -0.0134324)
0.2219        (0.623591 -2.82098e-20 -0.0134287)
0.222         (0.623557 -2.82084e-20 -0.0134251)
0.2221        (0.623523 -2.82064e-20 -0.0134214)
0.2222        (0.623489 -2.82052e-20 -0.0134177)
0.2223        (0.623456 -2.82032e-20 -0.013414)
0.2224        (0.623422 -2.82018e-20 -0.0134104)
0.2225        (0.623388 -2.81998e-20 -0.0134067)
0.2226        (0.623354 -2.81985e-20 -0.0134031)
0.2227        (0.62332 -2.81965e-20 -0.0133994)
0.2228        (0.623286 -2.81952e-20 -0.0133957)
0.2229        (0.623252 -2.81932e-20 -0.0133921)
0.223         (0.623218 -2.81919e-20 -0.0133884)
0.2231        (0.623185 -2.81898e-20 -0.0133848)
0.2232        (0.623151 -2.81885e-20 -0.0133811)
0.2233        (0.623117 -2.81864e-20 -0.0133775)
0.2234        (0.623083 -2.81852e-20 -0.0133738)
0.2235        (0.62305 -2.81831e-20 -0.0133701)
0.2236        (0.623016 -2.81818e-20 -0.0133665)
0.2237        (0.622982 -2.81797e-20 -0.0133628)
0.2238        (0.622949 -2.81784e-20 -0.0133592)
0.2239        (0.622915 -2.81764e-20 -0.0133555)
0.224         (0.622882 -2.81751e-20 -0.0133519)
0.2241        (0.622848 -2.8173e-20 -0.0133483)
0.2242        (0.622814 -2.81717e-20 -0.0133446)
0.2243        (0.622781 -2.81696e-20 -0.013341)
0.2244        (0.622747 -2.81683e-20 -0.0133373)
0.2245        (0.622714 -2.81662e-20 -0.0133337)
0.2246        (0.62268 -2.81649e-20 -0.01333)
0.2247        (0.622647 -2.81629e-20 -0.0133264)
0.2248        (0.622614 -2.81615e-20 -0.0133228)
0.2249        (0.62258 -2.81594e-20 -0.0133191)
0.225         (0.622547 -2.81581e-20 -0.0133155)
0.2251        (0.622513 -2.8156e-20 -0.0133118)
0.2252        (0.62248 -2.81547e-20 -0.0133082)
0.2253        (0.622447 -2.81526e-20 -0.0133046)
0.2254        (0.622413 -2.81512e-20 -0.0133009)
0.2255        (0.62238 -2.81491e-20 -0.0132973)
0.2256        (0.622347 -2.81478e-20 -0.0132937)
0.2257        (0.622314 -2.81457e-20 -0.01329)
0.2258        (0.62228 -2.81444e-20 -0.0132864)
0.2259        (0.622247 -2.81423e-20 -0.0132828)
0.226         (0.622214 -2.81409e-20 -0.0132792)
0.2261        (0.622181 -2.81388e-20 -0.0132755)
0.2262        (0.622148 -2.81375e-20 -0.0132719)
0.2263        (0.622115 -2.81354e-20 -0.0132683)
0.2264        (0.622082 -2.81338e-20 -0.0132647)
0.2265        (0.622048 -2.81323e-20 -0.013261)
0.2266        (0.622015 -2.81306e-20 -0.0132574)
0.2267        (0.621982 -2.81284e-20 -0.0132538)
0.2268        (0.621949 -2.81271e-20 -0.0132502)
0.2269        (0.621916 -2.81249e-20 -0.0132466)
0.227         (0.621883 -2.81233e-20 -0.0132429)
0.2271        (0.62185 -2.81218e-20 -0.0132393)
0.2272        (0.621817 -2.812e-20 -0.0132357)
0.2273        (0.621785 -2.81178e-20 -0.0132321)
0.2274        (0.621752 -2.81165e-20 -0.0132285)
0.2275        (0.621719 -2.81144e-20 -0.0132249)
0.2276        (0.621686 -2.81128e-20 -0.0132213)
0.2277        (0.621653 -2.81112e-20 -0.0132177)
0.2278        (0.62162 -2.81094e-20 -0.0132141)
0.2279        (0.621588 -2.81073e-20 -0.0132104)
0.228         (0.621555 -2.81057e-20 -0.0132069)
0.2281        (0.621522 -2.81042e-20 -0.0132032)
0.2282        (0.621489 -2.81024e-20 -0.0131997)
0.2283        (0.621457 -2.81002e-20 -0.013196)
0.2284        (0.621424 -2.80986e-20 -0.0131925)
0.2285        (0.621391 -2.8097e-20 -0.0131888)
0.2286        (0.621359 -2.80953e-20 -0.0131853)
0.2287        (0.621326 -2.80931e-20 -0.0131817)
0.2288        (0.621293 -2.80915e-20 -0.0131781)
0.2289        (0.621261 -2.80899e-20 -0.0131745)
0.229         (0.621228 -2.80882e-20 -0.0131709)
0.2291        (0.621196 -2.80859e-20 -0.0131673)
0.2292        (0.621163 -2.80844e-20 -0.0131637)
0.2293        (0.621131 -2.80827e-20 -0.0131601)
0.2294        (0.621098 -2.8081e-20 -0.0131566)
0.2295        (0.621066 -2.80786e-20 -0.013153)
0.2296        (0.621034 -2.80775e-20 -0.0131494)
0.2297        (0.621001 -2.80751e-20 -0.0131458)
0.2298        (0.620969 -2.80739e-20 -0.0131423)
0.2299        (0.620937 -2.80714e-20 -0.0131386)
0.23          (0.620904 -2.80701e-20 -0.0131351)
0.2301        (0.620872 -2.80681e-20 -0.0131315)
0.2302        (0.62084 -2.80667e-20 -0.013128)
0.2303        (0.620807 -2.80641e-20 -0.0131243)
0.2304        (0.620775 -2.80632e-20 -0.0131208)
0.2305        (0.620743 -2.80606e-20 -0.0131172)
0.2306        (0.620711 -2.80592e-20 -0.0131137)
0.2307        (0.620679 -2.80573e-20 -0.0131101)
0.2308        (0.620646 -2.80558e-20 -0.0131066)
0.2309        (0.620614 -2.80532e-20 -0.0131029)
0.231         (0.620582 -2.80522e-20 -0.0130994)
0.2311        (0.62055 -2.80497e-20 -0.0130958)
0.2312        (0.620518 -2.80483e-20 -0.0130923)
0.2313        (0.620486 -2.80464e-20 -0.0130887)
0.2314        (0.620454 -2.80448e-20 -0.0130852)
0.2315        (0.620422 -2.80423e-20 -0.0130816)
0.2316        (0.62039 -2.80412e-20 -0.0130781)
0.2317        (0.620358 -2.80387e-20 -0.0130745)
0.2318        (0.620326 -2.80373e-20 -0.013071)
0.2319        (0.620294 -2.80354e-20 -0.0130674)
0.232         (0.620262 -2.80338e-20 -0.0130639)
0.2321        (0.620231 -2.80313e-20 -0.0130603)
0.2322        (0.620199 -2.80301e-20 -0.0130568)
0.2323        (0.620167 -2.80277e-20 -0.0130532)
0.2324        (0.620135 -2.80262e-20 -0.0130497)
0.2325        (0.620103 -2.80243e-20 -0.0130461)
0.2326        (0.620072 -2.80227e-20 -0.0130426)
0.2327        (0.62004 -2.80202e-20 -0.0130391)
0.2328        (0.620008 -2.8019e-20 -0.0130356)
0.2329        (0.619976 -2.80166e-20 -0.013032)
0.233         (0.619945 -2.80151e-20 -0.0130285)
0.2331        (0.619913 -2.80133e-20 -0.0130249)
0.2332        (0.619882 -2.80116e-20 -0.0130215)
0.2333        (0.61985 -2.80091e-20 -0.0130179)
0.2334        (0.619818 -2.80076e-20 -0.0130144)
0.2335        (0.619787 -2.80058e-20 -0.0130108)
0.2336        (0.619755 -2.80041e-20 -0.0130074)
0.2337        (0.619724 -2.80017e-20 -0.0130038)
0.2338        (0.619692 -2.80004e-20 -0.0130003)
0.2339        (0.619661 -2.79981e-20 -0.0129967)
0.234         (0.619629 -2.79964e-20 -0.0129933)
0.2341        (0.619598 -2.79946e-20 -0.0129897)
0.2342        (0.619567 -2.79928e-20 -0.0129862)
0.2343        (0.619535 -2.79904e-20 -0.0129827)
0.2344        (0.619504 -2.79887e-20 -0.0129792)
0.2345        (0.619473 -2.79869e-20 -0.0129757)
0.2346        (0.619441 -2.79852e-20 -0.0129722)
0.2347        (0.61941 -2.79828e-20 -0.0129687)
0.2348        (0.619379 -2.79812e-20 -0.0129652)
0.2349        (0.619348 -2.79795e-20 -0.0129617)
0.235         (0.619316 -2.79776e-20 -0.0129582)
0.2351        (0.619285 -2.79753e-20 -0.0129547)
0.2352        (0.619254 -2.79736e-20 -0.0129512)
0.2353        (0.619223 -2.79719e-20 -0.0129477)
0.2354        (0.619192 -2.79701e-20 -0.0129442)
0.2355        (0.619161 -2.79677e-20 -0.0129407)
0.2356        (0.61913 -2.7966e-20 -0.0129372)
0.2357        (0.619098 -2.79643e-20 -0.0129337)
0.2358        (0.619067 -2.79624e-20 -0.0129302)
0.2359        (0.619036 -2.79601e-20 -0.0129267)
0.236         (0.619005 -2.79584e-20 -0.0129232)
0.2361        (0.618974 -2.79567e-20 -0.0129197)
0.2362        (0.618944 -2.79548e-20 -0.0129163)
0.2363        (0.618913 -2.79525e-20 -0.0129128)
0.2364        (0.618882 -2.79507e-20 -0.0129093)
0.2365        (0.618851 -2.7949e-20 -0.0129058)
0.2366        (0.61882 -2.79471e-20 -0.0129024)
0.2367        (0.618789 -2.79448e-20 -0.0128989)
0.2368        (0.618758 -2.7943e-20 -0.0128954)
0.2369        (0.618728 -2.79413e-20 -0.0128919)
0.237         (0.618697 -2.79394e-20 -0.0128885)
0.2371        (0.618666 -2.79371e-20 -0.012885)
0.2372        (0.618635 -2.79353e-20 -0.0128815)
0.2373        (0.618605 -2.79337e-20 -0.012878)
0.2374        (0.618574 -2.79317e-20 -0.0128746)
0.2375        (0.618543 -2.79295e-20 -0.0128711)
0.2376        (0.618513 -2.79276e-20 -0.0128677)
0.2377        (0.618482 -2.7926e-20 -0.0128642)
0.2378        (0.618452 -2.7924e-20 -0.0128607)
0.2379        (0.618421 -2.79217e-20 -0.0128573)
0.238         (0.61839 -2.79199e-20 -0.0128538)
0.2381        (0.61836 -2.79182e-20 -0.0128504)
0.2382        (0.618329 -2.79162e-20 -0.0128469)
0.2383        (0.618299 -2.7914e-20 -0.0128435)
0.2384        (0.618269 -2.79121e-20 -0.01284)
0.2385        (0.618238 -2.79104e-20 -0.0128366)
0.2386        (0.618208 -2.79084e-20 -0.0128331)
0.2387        (0.618177 -2.79062e-20 -0.0128297)
0.2388        (0.618147 -2.79043e-20 -0.0128263)
0.2389        (0.618117 -2.79026e-20 -0.0128228)
0.239         (0.618086 -2.79006e-20 -0.0128194)
0.2391        (0.618056 -2.78984e-20 -0.0128159)
0.2392        (0.618026 -2.78965e-20 -0.0128125)
0.2393        (0.617996 -2.78948e-20 -0.0128091)
0.2394        (0.617965 -2.78927e-20 -0.0128056)
0.2395        (0.617935 -2.78905e-20 -0.0128022)
0.2396        (0.617905 -2.78886e-20 -0.0127988)
0.2397        (0.617875 -2.78869e-20 -0.0127954)
0.2398        (0.617845 -2.78849e-20 -0.0127919)
0.2399        (0.617815 -2.78827e-20 -0.0127885)
0.24          (0.617784 -2.78807e-20 -0.0127851)
0.2401        (0.617754 -2.7879e-20 -0.0127817)
0.2402        (0.617724 -2.78769e-20 -0.0127782)
0.2403        (0.617694 -2.78747e-20 -0.0127748)
0.2404        (0.617664 -2.78728e-20 -0.0127714)
0.2405        (0.617634 -2.78711e-20 -0.012768)
0.2406        (0.617604 -2.7869e-20 -0.0127646)
0.2407        (0.617575 -2.78669e-20 -0.0127612)
0.2408        (0.617545 -2.78649e-20 -0.0127578)
0.2409        (0.617515 -2.78633e-20 -0.0127544)
0.241         (0.617485 -2.78612e-20 -0.0127509)
0.2411        (0.617455 -2.7859e-20 -0.0127475)
0.2412        (0.617425 -2.7857e-20 -0.0127441)
0.2413        (0.617395 -2.78552e-20 -0.0127407)
0.2414        (0.617366 -2.78531e-20 -0.0127373)
0.2415        (0.617336 -2.78509e-20 -0.0127339)
0.2416        (0.617306 -2.7849e-20 -0.0127305)
0.2417        (0.617277 -2.78473e-20 -0.0127271)
0.2418        (0.617247 -2.78452e-20 -0.0127237)
0.2419        (0.617217 -2.7843e-20 -0.0127204)
0.242         (0.617188 -2.78409e-20 -0.012717)
0.2421        (0.617158 -2.78392e-20 -0.0127136)
0.2422        (0.617128 -2.78371e-20 -0.0127102)
0.2423        (0.617099 -2.78349e-20 -0.0127068)
0.2424        (0.617069 -2.78329e-20 -0.0127034)
0.2425        (0.61704 -2.78312e-20 -0.0127001)
0.2426        (0.61701 -2.78291e-20 -0.0126967)
0.2427        (0.616981 -2.78269e-20 -0.0126933)
0.2428        (0.616951 -2.78249e-20 -0.0126899)
0.2429        (0.616922 -2.78231e-20 -0.0126865)
0.243         (0.616893 -2.7821e-20 -0.0126832)
0.2431        (0.616863 -2.78188e-20 -0.0126798)
0.2432        (0.616834 -2.78168e-20 -0.0126764)
0.2433        (0.616805 -2.78151e-20 -0.0126731)
0.2434        (0.616775 -2.7813e-20 -0.0126697)
0.2435        (0.616746 -2.78108e-20 -0.0126663)
0.2436        (0.616717 -2.78087e-20 -0.012663)
0.2437        (0.616688 -2.78069e-20 -0.0126596)
0.2438        (0.616658 -2.78048e-20 -0.0126563)
0.2439        (0.616629 -2.78026e-20 -0.0126529)
0.244         (0.6166 -2.78006e-20 -0.0126496)
0.2441        (0.616571 -2.77988e-20 -0.0126462)
0.2442        (0.616542 -2.77967e-20 -0.0126429)
0.2443        (0.616513 -2.77945e-20 -0.0126395)
0.2444        (0.616484 -2.77924e-20 -0.0126362)
0.2445        (0.616455 -2.77904e-20 -0.0126328)
0.2446        (0.616425 -2.77888e-20 -0.0126295)
0.2447        (0.616396 -2.77865e-20 -0.0126261)
0.2448        (0.616368 -2.77844e-20 -0.0126228)
0.2449        (0.616339 -2.77822e-20 -0.0126195)
0.245         (0.61631 -2.77802e-20 -0.0126161)
0.2451        (0.616281 -2.77785e-20 -0.0126128)
0.2452        (0.616252 -2.77763e-20 -0.0126094)
0.2453        (0.616223 -2.77741e-20 -0.0126061)
0.2454        (0.616194 -2.7772e-20 -0.0126028)
0.2455        (0.616165 -2.77699e-20 -0.0125995)
0.2456        (0.616136 -2.77683e-20 -0.0125961)
0.2457        (0.616108 -2.7766e-20 -0.0125928)
0.2458        (0.616079 -2.77638e-20 -0.0125895)
0.2459        (0.61605 -2.77617e-20 -0.0125862)
0.246         (0.616022 -2.77596e-20 -0.0125828)
0.2461        (0.615993 -2.77579e-20 -0.0125795)
0.2462        (0.615964 -2.77557e-20 -0.0125762)
0.2463        (0.615936 -2.77535e-20 -0.0125729)
0.2464        (0.615907 -2.77514e-20 -0.0125696)
0.2465        (0.615878 -2.77493e-20 -0.0125663)
0.2466        (0.61585 -2.77476e-20 -0.012563)
0.2467        (0.615821 -2.77453e-20 -0.0125597)
0.2468        (0.615793 -2.77432e-20 -0.0125564)
0.2469        (0.615764 -2.7741e-20 -0.0125531)
0.247         (0.615736 -2.7739e-20 -0.0125498)
0.2471        (0.615707 -2.77371e-20 -0.0125465)
0.2472        (0.615679 -2.7735e-20 -0.0125432)
0.2473        (0.61565 -2.77327e-20 -0.0125399)
0.2474        (0.615622 -2.77307e-20 -0.0125366)
0.2475        (0.615594 -2.77285e-20 -0.0125333)
0.2476        (0.615565 -2.77268e-20 -0.01253)
0.2477        (0.615537 -2.77245e-20 -0.0125267)
0.2478        (0.615509 -2.77224e-20 -0.0125234)
0.2479        (0.615481 -2.77201e-20 -0.0125202)
0.248         (0.615452 -2.77181e-20 -0.0125169)
0.2481        (0.615424 -2.7716e-20 -0.0125136)
0.2482        (0.615396 -2.77143e-20 -0.0125103)
0.2483        (0.615368 -2.7712e-20 -0.0125071)
0.2484        (0.61534 -2.77098e-20 -0.0125038)
0.2485        (0.615311 -2.77075e-20 -0.0125005)
0.2486        (0.615283 -2.77055e-20 -0.0124972)
0.2487        (0.615255 -2.77037e-20 -0.012494)
0.2488        (0.615227 -2.77016e-20 -0.0124907)
0.2489        (0.615199 -2.76993e-20 -0.0124875)
0.249         (0.615171 -2.76973e-20 -0.0124842)
0.2491        (0.615143 -2.76951e-20 -0.0124809)
0.2492        (0.615115 -2.76931e-20 -0.0124777)
0.2493        (0.615087 -2.76909e-20 -0.0124744)
0.2494        (0.615059 -2.76889e-20 -0.0124712)
0.2495        (0.615031 -2.76867e-20 -0.0124679)
0.2496        (0.615004 -2.76847e-20 -0.0124647)
0.2497        (0.614976 -2.76825e-20 -0.0124614)
0.2498        (0.614948 -2.76805e-20 -0.0124582)
0.2499        (0.61492 -2.76782e-20 -0.012455)
0.25          (0.614892 -2.76762e-20 -0.0124517)
0.2501        (0.614864 -2.7674e-20 -0.0124485)
0.2502        (0.614837 -2.7672e-20 -0.0124452)
0.2503        (0.614809 -2.76698e-20 -0.012442)
0.2504        (0.614781 -2.76677e-20 -0.0124388)
0.2505        (0.614754 -2.76655e-20 -0.0124356)
0.2506        (0.614726 -2.76635e-20 -0.0124323)
0.2507        (0.614698 -2.76613e-20 -0.0124291)
0.2508        (0.614671 -2.76592e-20 -0.0124259)
0.2509        (0.614643 -2.7657e-20 -0.0124227)
0.251         (0.614616 -2.7655e-20 -0.0124195)
0.2511        (0.614588 -2.76528e-20 -0.0124163)
0.2512        (0.614561 -2.76507e-20 -0.012413)
0.2513        (0.614533 -2.76485e-20 -0.0124098)
0.2514        (0.614506 -2.76464e-20 -0.0124066)
0.2515        (0.614478 -2.76443e-20 -0.0124034)
0.2516        (0.614451 -2.76422e-20 -0.0124002)
0.2517        (0.614423 -2.764e-20 -0.012397)
0.2518        (0.614396 -2.76379e-20 -0.0123938)
0.2519        (0.614369 -2.76357e-20 -0.0123906)
0.252         (0.614341 -2.76336e-20 -0.0123874)
0.2521        (0.614314 -2.76314e-20 -0.0123842)
0.2522        (0.614287 -2.76293e-20 -0.012381)
0.2523        (0.614259 -2.76271e-20 -0.0123778)
0.2524        (0.614232 -2.7625e-20 -0.0123746)
0.2525        (0.614205 -2.76228e-20 -0.0123715)
0.2526        (0.614178 -2.76207e-20 -0.0123683)
0.2527        (0.61415 -2.76185e-20 -0.0123651)
0.2528        (0.614123 -2.76164e-20 -0.0123619)
0.2529        (0.614096 -2.76142e-20 -0.0123587)
0.253         (0.614069 -2.76121e-20 -0.0123556)
0.2531        (0.614042 -2.76099e-20 -0.0123524)
0.2532        (0.614015 -2.76078e-20 -0.0123492)
0.2533        (0.613988 -2.76056e-20 -0.0123461)
0.2534        (0.613961 -2.76034e-20 -0.0123429)
0.2535        (0.613934 -2.76012e-20 -0.0123397)
0.2536        (0.613907 -2.75991e-20 -0.0123365)
0.2537        (0.61388 -2.75969e-20 -0.0123334)
0.2538        (0.613853 -2.75947e-20 -0.0123302)
0.2539        (0.613826 -2.75925e-20 -0.0123271)
0.254         (0.613799 -2.75903e-20 -0.0123239)
0.2541        (0.613772 -2.75881e-20 -0.0123208)
0.2542        (0.613745 -2.7586e-20 -0.0123176)
0.2543        (0.613719 -2.75838e-20 -0.0123145)
0.2544        (0.613692 -2.75816e-20 -0.0123113)
0.2545        (0.613665 -2.75794e-20 -0.0123082)
0.2546        (0.613638 -2.75773e-20 -0.012305)
0.2547        (0.613611 -2.75751e-20 -0.0123019)
0.2548        (0.613585 -2.75729e-20 -0.0122987)
0.2549        (0.613558 -2.75707e-20 -0.0122956)
0.255         (0.613531 -2.75685e-20 -0.0122924)
0.2551        (0.613505 -2.75663e-20 -0.0122893)
0.2552        (0.613478 -2.75642e-20 -0.0122862)
0.2553        (0.613452 -2.75619e-20 -0.012283)
0.2554        (0.613425 -2.75598e-20 -0.0122799)
0.2555        (0.613398 -2.75576e-20 -0.0122768)
0.2556        (0.613372 -2.75554e-20 -0.0122737)
0.2557        (0.613345 -2.75532e-20 -0.0122705)
0.2558        (0.613319 -2.7551e-20 -0.0122674)
0.2559        (0.613292 -2.75488e-20 -0.0122643)
0.256         (0.613266 -2.75467e-20 -0.0122612)
0.2561        (0.61324 -2.75444e-20 -0.0122581)
0.2562        (0.613213 -2.75422e-20 -0.0122549)
0.2563        (0.613187 -2.754e-20 -0.0122518)
0.2564        (0.61316 -2.75378e-20 -0.0122487)
0.2565        (0.613134 -2.75356e-20 -0.0122456)
0.2566        (0.613108 -2.75334e-20 -0.0122425)
0.2567        (0.613081 -2.75312e-20 -0.0122394)
0.2568        (0.613055 -2.75289e-20 -0.0122363)
0.2569        (0.613029 -2.75267e-20 -0.0122332)
0.257         (0.613003 -2.75245e-20 -0.0122301)
0.2571        (0.612977 -2.75223e-20 -0.012227)
0.2572        (0.61295 -2.75201e-20 -0.0122239)
0.2573        (0.612924 -2.75179e-20 -0.0122208)
0.2574        (0.612898 -2.75156e-20 -0.0122177)
0.2575        (0.612872 -2.75135e-20 -0.0122147)
0.2576        (0.612846 -2.75112e-20 -0.0122116)
0.2577        (0.61282 -2.7509e-20 -0.0122085)
0.2578        (0.612794 -2.75067e-20 -0.0122054)
0.2579        (0.612768 -2.75046e-20 -0.0122023)
0.258         (0.612742 -2.75023e-20 -0.0121993)
0.2581        (0.612716 -2.75001e-20 -0.0121962)
0.2582        (0.61269 -2.74978e-20 -0.0121931)
0.2583        (0.612664 -2.74957e-20 -0.0121901)
0.2584        (0.612638 -2.74933e-20 -0.012187)
0.2585        (0.612612 -2.74912e-20 -0.0121839)
0.2586        (0.612586 -2.74888e-20 -0.0121808)
0.2587        (0.61256 -2.74868e-20 -0.0121778)
0.2588        (0.612534 -2.74844e-20 -0.0121747)
0.2589        (0.612509 -2.74823e-20 -0.0121717)
0.259         (0.612483 -2.74799e-20 -0.0121686)
0.2591        (0.612457 -2.74778e-20 -0.0121656)
0.2592        (0.612431 -2.74754e-20 -0.0121625)
0.2593        (0.612406 -2.74733e-20 -0.0121595)
0.2594        (0.61238 -2.74709e-20 -0.0121564)
0.2595        (0.612354 -2.74688e-20 -0.0121534)
0.2596        (0.612329 -2.74664e-20 -0.0121503)
0.2597        (0.612303 -2.74643e-20 -0.0121473)
0.2598        (0.612277 -2.74619e-20 -0.0121442)
0.2599        (0.612252 -2.74598e-20 -0.0121412)
0.26          (0.612226 -2.74574e-20 -0.0121381)
0.2601        (0.612201 -2.74553e-20 -0.0121351)
0.2602        (0.612175 -2.74529e-20 -0.0121321)
0.2603        (0.61215 -2.74508e-20 -0.0121291)
0.2604        (0.612124 -2.74484e-20 -0.012126)
0.2605        (0.612099 -2.74462e-20 -0.012123)
0.2606        (0.612073 -2.74438e-20 -0.01212)
0.2607        (0.612048 -2.74417e-20 -0.012117)
0.2608        (0.612023 -2.74393e-20 -0.0121139)
0.2609        (0.611997 -2.74372e-20 -0.0121109)
0.261         (0.611972 -2.74348e-20 -0.0121079)
0.2611        (0.611946 -2.74327e-20 -0.0121049)
0.2612        (0.611921 -2.74303e-20 -0.0121019)
0.2613        (0.611896 -2.74281e-20 -0.0120989)
0.2614        (0.611871 -2.74257e-20 -0.0120959)
0.2615        (0.611845 -2.74235e-20 -0.0120929)