/*--------------------------------*- C++ -*----------------------------------*\
| =========                 |                                                 |
| \\      /  F ield         | OpenFOAM: The Open Source CFD Toolbox           |
|  \\    /   O peration     | Version:  2406                                  |
|   \\  /    A nd           | Website:  www.openfoam.com                      |
|    \\/     M anipulation  |                                                 |
\*---------------------------------------------------------------------------*/
FoamFile
{
    version     2.0;
    format      ascii;
    arch        "LSB;label=32;scalar=64";
    class       volScalarField;
    location    "9.975";
    object      p;
}
// * * * * * * * * * * * * * * * * * * * * * * * * * * * * * * * * * * * * * //

dimensions      [0 2 -2 0 0 0 0];

internalField   nonuniform List<scalar> 
40000
(
1.11089e-07
-6.32743e-06
-1.26662e-05
-1.87565e-05
-2.49964e-05
-3.14984e-05
-3.82736e-05
-4.53496e-05
-5.27735e-05
-6.05998e-05
-6.88876e-05
-7.77016e-05
-8.71126e-05
-9.71972e-05
-0.000108037
-0.000119721
-0.000132342
-0.000145999
-0.000160795
-0.000176839
-0.000194246
-0.000213134
-0.000233629
-0.000255858
-0.000279957
-0.000306065
-0.000334327
-0.000364894
-0.000397924
-0.000433582
-0.000472041
-0.00051348
-0.000558092
-0.000606078
-0.000657653
-0.000713048
-0.000772507
-0.000836298
-0.000904708
-0.000978051
-0.00105667
-0.00114094
-0.00123129
-0.00132816
-0.00143209
-0.00154365
-0.00166348
-0.00179231
-0.00193097
-0.00208038
-0.0022416
-0.00241583
-0.00260442
-0.00280892
-0.00303108
-0.0032729
-0.00353666
-0.0038249
-0.00414056
-0.00448689
-0.00486758
-0.00528676
-0.00574898
-0.00625931
-0.00682329
-0.00744691
-0.00813662
-0.00889925
-0.0097419
-0.0106719
-0.0116964
-0.0128226
-0.014057
-0.0154055
-0.016873
-0.0184628
-0.0201767
-0.0220145
-0.0239735
-0.0260489
-0.0282332
-0.0305165
-0.0328866
-0.0353295
-0.0378294
-0.04037
-0.0429341
-0.0455053
-0.0480676
-0.0506066
-0.0531093
-0.0555645
-0.0579625
-0.0602953
-0.0625558
-0.0647375
-0.0668338
-0.0688376
-0.0707407
-0.0725334
-0.000432062
-0.000437274
-0.000442469
-0.000447552
-0.00045285
-0.000458461
-0.000464402
-0.000470705
-0.000477421
-0.000484606
-0.000492321
-0.000500636
-0.000509622
-0.000519361
-0.000529938
-0.000541444
-0.000553975
-0.000567635
-0.00058253
-0.000598774
-0.000616486
-0.000635788
-0.000656809
-0.000679683
-0.000704548
-0.00073155
-0.00076084
-0.000792573
-0.000826913
-0.000864032
-0.000904107
-0.000947327
-0.00099389
-0.00104401
-0.0010979
-0.00115581
-0.00121798
-0.00128471
-0.00135627
-0.00143301
-0.00151528
-0.00160347
-0.00169801
-0.00179939
-0.00190814
-0.00202485
-0.0021502
-0.00228495
-0.00242995
-0.00258615
-0.00275465
-0.00293669
-0.00313367
-0.00334719
-0.00357905
-0.00383131
-0.0041063
-0.00440668
-0.00473541
-0.00509586
-0.00549179
-0.00592742
-0.00640742
-0.00693691
-0.00752153
-0.00816736
-0.00888092
-0.00966906
-0.0105389
-0.0114978
-0.0125528
-0.013711
-0.0149789
-0.016362
-0.017865
-0.0194909
-0.0212411
-0.023115
-0.0251095
-0.0272193
-0.0294366
-0.031751
-0.0341503
-0.03662
-0.0391447
-0.0417079
-0.0442929
-0.0468836
-0.0494647
-0.0520222
-0.0545439
-0.057019
-0.0594388
-0.0617954
-0.0640822
-0.0662929
-0.0684209
-0.0704587
-0.072398
-0.0742281
-0.000854361
-0.000858336
-0.000862392
-0.000866471
-0.000870826
-0.00087554
-0.000880636
-0.000886154
-0.000892144
-0.000898667
-0.000905786
-0.000913572
-0.000922102
-0.000931458
-0.000941728
-0.000953007
-0.000965396
-0.000978999
-0.000993928
-0.0010103
-0.00102824
-0.00104787
-0.00106932
-0.00109273
-0.00111826
-0.00114603
-0.00117622
-0.00120898
-0.00124449
-0.00128291
-0.00132443
-0.00136925
-0.00141757
-0.00146961
-0.0015256
-0.00158579
-0.00165043
-0.00171982
-0.00179426
-0.0018741
-0.00195969
-0.00205144
-0.00214981
-0.00225528
-0.00236841
-0.00248982
-0.0026202
-0.00276032
-0.00291106
-0.00307341
-0.0032485
-0.00343758
-0.00364211
-0.00386372
-0.00410426
-0.00436585
-0.00465085
-0.00496197
-0.00530226
-0.00567514
-0.00608444
-0.00653443
-0.00702985
-0.00757592
-0.0081783
-0.00884314
-0.00957698
-0.0103867
-0.0112795
-0.0122625
-0.013343
-0.0145277
-0.0158231
-0.0172346
-0.0187664
-0.0204215
-0.0222009
-0.0241037
-0.0261264
-0.0282635
-0.0305069
-0.032846
-0.0352683
-0.0377595
-0.0403041
-0.0428859
-0.0454885
-0.0480962
-0.050694
-0.0532687
-0.0558085
-0.0583032
-0.0607443
-0.0631247
-0.0654376
-0.0676769
-0.069836
-0.0719071
-0.0738813
-0.0757475
-0.00126556
-0.00126832
-0.00127125
-0.00127433
-0.00127775
-0.00128157
-0.00128582
-0.00129055
-0.00129581
-0.00130166
-0.00130816
-0.0013154
-0.00132344
-0.00133238
-0.0013423
-0.00135331
-0.0013655
-0.00137899
-0.00139388
-0.00141031
-0.00142839
-0.00144825
-0.00147004
-0.00149389
-0.00151995
-0.00154837
-0.00157932
-0.00161296
-0.00164946
-0.00168901
-0.0017318
-0.00177802
-0.00182789
-0.00188162
-0.00193947
-0.00200167
-0.0020685
-0.00214026
-0.00221726
-0.00229985
-0.00238841
-0.00248334
-0.00258512
-0.00269425
-0.00281129
-0.00293688
-0.00307173
-0.00321663
-0.00337247
-0.00354028
-0.00372119
-0.0039165
-0.00412768
-0.0043564
-0.00460455
-0.00487426
-0.00516796
-0.0054884
-0.00583865
-0.00622218
-0.00664288
-0.00710507
-0.00761352
-0.00817348
-0.00879068
-0.00947128
-0.0102218
-0.0110492
-0.0119606
-0.0129632
-0.014064
-0.0152698
-0.0165869
-0.0180206
-0.0195749
-0.0212526
-0.0230544
-0.0249793
-0.0270235
-0.0291813
-0.0314444
-0.0338023
-0.0362422
-0.03875
-0.0413103
-0.043907
-0.0465242
-0.0491464
-0.0517593
-0.0543499
-0.0569068
-0.0594203
-0.0618823
-0.0642856
-0.0666239
-0.0688909
-0.0710798
-0.0731825
-0.0751897
-0.0770899
-0.00166467
-0.00166623
-0.00166806
-0.00167017
-0.00167266
-0.0016756
-0.00167901
-0.00168295
-0.00168747
-0.00169263
-0.00169851
-0.00170517
-0.0017127
-0.00172119
-0.00173073
-0.00174142
-0.00175336
-0.00176667
-0.00178146
-0.00179786
-0.001816
-0.001836
-0.00185802
-0.00188218
-0.00190865
-0.00193759
-0.00196915
-0.00200351
-0.00204084
-0.00208133
-0.00212518
-0.00217258
-0.00222377
-0.00227895
-0.00233839
-0.00240233
-0.00247105
-0.00254486
-0.00262408
-0.00270906
-0.00280019
-0.0028979
-0.00300264
-0.00311495
-0.0032354
-0.00336462
-0.00350335
-0.0036524
-0.00381267
-0.00398519
-0.00417113
-0.00437179
-0.00458868
-0.00482348
-0.0050781
-0.00535471
-0.00565576
-0.005984
-0.00634257
-0.00673496
-0.00716506
-0.00763724
-0.00815628
-0.00872746
-0.00935652
-0.0100496
-0.0108133
-0.0116545
-0.0125802
-0.0135977
-0.0147139
-0.0159356
-0.0172689
-0.0187188
-0.0202895
-0.0219835
-0.0238014
-0.0257419
-0.0278014
-0.0299738
-0.0322508
-0.0346218
-0.0370744
-0.0395943
-0.0421663
-0.0447747
-0.0474038
-0.0500384
-0.0526645
-0.0552696
-0.0578425
-0.0603739
-0.0628557
-0.065281
-0.0676434
-0.0699365
-0.0721533
-0.0742855
-0.0763233
-0.0782546
-0.00205085
-0.00205125
-0.00205201
-0.00205316
-0.00205476
-0.00205682
-0.00205941
-0.00206256
-0.00206634
-0.00207081
-0.00207605
-0.00208213
-0.00208912
-0.00209713
-0.00210625
-0.00211658
-0.00212822
-0.00214129
-0.00215591
-0.00217221
-0.00219031
-0.00221036
-0.00223249
-0.00225686
-0.00228361
-0.00231291
-0.00234492
-0.00237983
-0.0024178
-0.00245904
-0.00250374
-0.0025521
-0.00260436
-0.00266073
-0.00272148
-0.00278686
-0.00285716
-0.00293268
-0.00301376
-0.00310074
-0.00319404
-0.00329407
-0.00340132
-0.0035163
-0.00363962
-0.00377191
-0.00391391
-0.00406643
-0.00423041
-0.00440688
-0.00459701
-0.00480214
-0.00502376
-0.00526357
-0.00552351
-0.00580575
-0.00611276
-0.00644731
-0.00681253
-0.00721194
-0.00764944
-0.00812939
-0.0086566
-0.00923634
-0.00987433
-0.0105767
-0.0113501
-0.0122012
-0.0131372
-0.0141652
-0.015292
-0.0165245
-0.0178685
-0.0193292
-0.0209105
-0.0226148
-0.0244427
-0.0263929
-0.0284616
-0.0306429
-0.0329283
-0.0353075
-0.0377681
-0.0402959
-0.0428761
-0.045493
-0.0481314
-0.0507763
-0.0534139
-0.0560319
-0.0586196
-0.0611675
-0.0636679
-0.0661137
-0.0684985
-0.0708158
-0.0730582
-0.0752173
-0.0772827
-0.0792419
-0.00242344
-0.00242272
-0.00242244
-0.00242267
-0.00242339
-0.0024246
-0.00242637
-0.00242876
-0.00243181
-0.00243559
-0.00244018
-0.00244566
-0.0024521
-0.00245961
-0.00246827
-0.00247819
-0.00248948
-0.00250226
-0.00251664
-0.00253276
-0.00255074
-0.00257073
-0.00259287
-0.00261731
-0.0026442
-0.00267372
-0.00270603
-0.00274131
-0.00277974
-0.00282152
-0.00286685
-0.00291593
-0.00296901
-0.0030263
-0.00308807
-0.00315458
-0.00322611
-0.00330299
-0.00338555
-0.00347414
-0.00356917
-0.00367107
-0.00378033
-0.00389748
-0.0040231
-0.00415786
-0.00430249
-0.00445781
-0.00462477
-0.00480439
-0.00499787
-0.00520653
-0.00543189
-0.00567564
-0.00593973
-0.00622633
-0.0065379
-0.00687724
-0.00724746
-0.00765208
-0.00809499
-0.00858054
-0.00911353
-0.00969921
-0.0103433
-0.0110518
-0.0118314
-0.0126889
-0.0136311
-0.0146653
-0.0157983
-0.0170366
-0.0183863
-0.0198524
-0.0214387
-0.0231478
-0.0249801
-0.0269343
-0.0290067
-0.0311915
-0.0334804
-0.035863
-0.0383271
-0.040859
-0.0434439
-0.0460665
-0.0487116
-0.0513645
-0.0540118
-0.0566413
-0.0592421
-0.0618052
-0.0643225
-0.0667871
-0.0691923
-0.0715315
-0.073797
-0.07598
-0.0780698
-0.0800536
-0.00278192
-0.00278012
-0.00277886
-0.0027782
-0.00277807
-0.00277846
-0.00277944
-0.00278107
-0.0027834
-0.0027865
-0.00279045
-0.00279531
-0.00280119
-0.00280817
-0.00281634
-0.00282582
-0.00283672
-0.00284914
-0.00286322
-0.00287908
-0.00289685
-0.00291668
-0.00293872
-0.00296311
-0.00299001
-0.0030196
-0.00305204
-0.00308751
-0.0031262
-0.00316831
-0.00321404
-0.0032636
-0.00331723
-0.00337516
-0.00343765
-0.00350497
-0.0035774
-0.00365527
-0.00373892
-0.0038287
-0.00392502
-0.00402833
-0.0041391
-0.00425786
-0.00438523
-0.00452184
-0.00466846
-0.00482589
-0.00499507
-0.00517705
-0.00537302
-0.00558429
-0.00581238
-0.00605899
-0.00632606
-0.00661575
-0.00693052
-0.00727314
-0.00764673
-0.00805477
-0.00850114
-0.00899017
-0.00952662
-0.0101157
-0.0107631
-0.0114748
-0.0122574
-0.0131176
-0.0140624
-0.0150986
-0.0162334
-0.017473
-0.0188235
-0.02029
-0.0218763
-0.0235848
-0.0254162
-0.0273691
-0.02944
-0.0316233
-0.0339107
-0.0362923
-0.0387559
-0.0412882
-0.0438745
-0.0464998
-0.0491491
-0.051808
-0.054463
-0.0571021
-0.0597145
-0.062291
-0.0648235
-0.067305
-0.0697284
-0.072087
-0.0743728
-0.0765767
-0.0786876
-0.0806923
-0.00312593
-0.00312312
-0.00312091
-0.00311941
-0.00311847
-0.00311807
-0.00311829
-0.00311918
-0.0031208
-0.00312323
-0.00312653
-0.00313079
-0.00313609
-0.00314252
-0.00315018
-0.00315919
-0.00316964
-0.00318165
-0.00319536
-0.00321088
-0.00322836
-0.00324794
-0.00326976
-0.00329398
-0.00332075
-0.00335026
-0.00338266
-0.00341815
-0.0034569
-0.00349913
-0.00354503
-0.00359482
-0.00364874
-0.00370702
-0.00376992
-0.00383772
-0.0039107
-0.00398919
-0.00407353
-0.00416408
-0.00426124
-0.00436547
-0.00447724
-0.00459709
-0.00472561
-0.00486348
-0.00501141
-0.00517025
-0.00534091
-0.00552445
-0.00572204
-0.005935
-0.00616483
-0.00641323
-0.00668212
-0.00697365
-0.00729026
-0.00763471
-0.00801007
-0.0084198
-0.00886775
-0.00935821
-0.00989589
-0.010486
-0.011134
-0.0118461
-0.0126286
-0.0134882
-0.0144318
-0.0154664
-0.0165988
-0.0178354
-0.0191823
-0.0206444
-0.0222257
-0.0239287
-0.0257542
-0.0277008
-0.0297654
-0.0319424
-0.0342239
-0.0366002
-0.0390594
-0.0415884
-0.0441729
-0.046798
-0.049449
-0.0521116
-0.0547724
-0.0574193
-0.0600414
-0.0626295
-0.0651754
-0.0676715
-0.0701109
-0.0724863
-0.0747895
-0.0770112
-0.0791398
-0.081162
-0.00345525
-0.00345149
-0.00344839
-0.00344609
-0.00344437
-0.00344322
-0.00344271
-0.00344289
-0.00344383
-0.0034456
-0.00344827
-0.00345191
-0.00345663
-0.0034625
-0.00346963
-0.00347812
-0.00348808
-0.00349964
-0.00351291
-0.00352803
-0.00354513
-0.00356436
-0.00358585
-0.00360978
-0.00363629
-0.00366556
-0.00369777
-0.00373309
-0.00377171
-0.00381384
-0.00385968
-0.00390945
-0.00396338
-0.00402172
-0.00408473
-0.00415268
-0.00422586
-0.00430459
-0.00438922
-0.00448011
-0.00457766
-0.00468233
-0.00479459
-0.00491497
-0.00504408
-0.00518257
-0.00533117
-0.00549071
-0.00566211
-0.00584641
-0.00604477
-0.0062585
-0.0064891
-0.00673825
-0.00700782
-0.00729998
-0.00761712
-0.00796196
-0.00833756
-0.00874732
-0.00919505
-0.00968498
-0.0102218
-0.0108105
-0.0114567
-0.0121664
-0.0129459
-0.0138018
-0.014741
-0.0157702
-0.0168965
-0.0181261
-0.0194651
-0.0209185
-0.0224903
-0.0241832
-0.025998
-0.0279337
-0.0299873
-0.0321535
-0.0344249
-0.0367917
-0.0392428
-0.041765
-0.0443445
-0.0469667
-0.0496168
-0.0522808
-0.0549452
-0.0575979
-0.0602279
-0.0628257
-0.0653828
-0.0678916
-0.0703445
-0.0727341
-0.075052
-0.0772883
-0.0794314
-0.0814677
-0.0037698
-0.00376515
-0.00376122
-0.00375817
-0.00375572
-0.00375386
-0.00375264
-0.00375215
-0.00375243
-0.00375355
-0.0037556
-0.00375864
-0.00376276
-0.00376806
-0.00377464
-0.00378259
-0.00379203
-0.00380309
-0.00381587
-0.00383051
-0.00384715
-0.00386593
-0.003887
-0.00391052
-0.00393663
-0.00396552
-0.00399736
-0.00403233
-0.00407062
-0.00411244
-0.00415799
-0.00420749
-0.00426118
-0.00431929
-0.00438209
-0.00444986
-0.00452288
-0.00460148
-0.00468599
-0.00477679
-0.00487429
-0.00497891
-0.00509114
-0.00521152
-0.00534063
-0.00547913
-0.00562775
-0.0057873
-0.0059587
-0.00614297
-0.00634127
-0.00655489
-0.0067853
-0.00703416
-0.00730334
-0.00759494
-0.00791134
-0.00825523
-0.00862959
-0.00903779
-0.00948359
-0.00997114
-0.010505
-0.0110903
-0.0117324
-0.0124372
-0.0132109
-0.0140602
-0.0149917
-0.0160124
-0.0171289
-0.0183478
-0.0196749
-0.0211155
-0.0226737
-0.0243521
-0.0261519
-0.0280723
-0.0301106
-0.0322619
-0.0345189
-0.0368724
-0.0393116
-0.0418237
-0.0443951
-0.0470114
-0.0496581
-0.052321
-0.0549869
-0.0576433
-0.0602792
-0.0628847
-0.065451
-0.0679702
-0.0704344
-0.0728357
-0.0751654
-0.0774134
-0.079568
-0.0816151
-0.00406958
-0.00406411
-0.00405941
-0.00405566
-0.00405254
-0.00405
-0.00404813
-0.00404699
-0.00404664
-0.00404714
-0.00404858
-0.00405102
-0.00405456
-0.00405928
-0.00406529
-0.00407268
-0.00408157
-0.00409207
-0.00410431
-0.00411842
-0.00413452
-0.00415277
-0.00417331
-0.00419629
-0.00422188
-0.00425024
-0.00428156
-0.00431601
-0.00435378
-0.00439507
-0.0044401
-0.00448909
-0.00454225
-0.00459985
-0.00466214
-0.00472939
-0.00480191
-0.00487999
-0.004964
-0.00505429
-0.00515126
-0.00525536
-0.00536706
-0.0054869
-0.00561544
-0.00575335
-0.00590135
-0.00606023
-0.00623091
-0.00641438
-0.0066118
-0.00682444
-0.00705374
-0.00730133
-0.00756905
-0.00785898
-0.00817344
-0.00851506
-0.0088868
-0.00929196
-0.00973421
-0.0102176
-0.0107468
-0.0113265
-0.0119623
-0.0126598
-0.0134253
-0.0142653
-0.0151863
-0.0161953
-0.0172989
-0.0185035
-0.0198153
-0.0212393
-0.0227798
-0.0244398
-0.0262206
-0.0281216
-0.0301406
-0.0322728
-0.0345116
-0.0368481
-0.0392718
-0.0417704
-0.0443305
-0.046938
-0.0495786
-0.0522381
-0.0549031
-0.0575611
-0.0602008
-0.062812
-0.0653855
-0.0679129
-0.0703861
-0.0727967
-0.0751357
-0.0773927
-0.0795558
-0.0816107
-0.00435474
-0.00434852
-0.00434311
-0.00433872
-0.00433497
-0.00433181
-0.00432932
-0.00432757
-0.00432662
-0.00432653
-0.00432737
-0.00432923
-0.00433218
-0.00433633
-0.00434175
-0.00434856
-0.00435687
-0.00436679
-0.00437843
-0.00439194
-0.00440744
-0.00442507
-0.00444498
-0.00446732
-0.00449226
-0.00451996
-0.00455059
-0.00458434
-0.0046214
-0.00466197
-0.00470626
-0.00475448
-0.00480687
-0.00486367
-0.00492514
-0.00499155
-0.00506321
-0.00514042
-0.00522351
-0.00531287
-0.00540889
-0.00551199
-0.00562266
-0.00574142
-0.00586884
-0.00600557
-0.00615231
-0.00630986
-0.00647911
-0.00666105
-0.0068568
-0.00706762
-0.00729492
-0.0075403
-0.00780556
-0.00809273
-0.00840411
-0.00874225
-0.00911006
-0.00951076
-0.00994796
-0.0104257
-0.0109483
-0.0115207
-0.0121481
-0.0128363
-0.0135912
-0.0144194
-0.0153274
-0.0163219
-0.0174095
-0.0185968
-0.0198898
-0.0212939
-0.0228132
-0.0244511
-0.026209
-0.0280869
-0.0300826
-0.032192
-0.0344089
-0.0367248
-0.0391295
-0.0416113
-0.0441571
-0.0467529
-0.0493846
-0.0520382
-0.0547
-0.0573574
-0.0599988
-0.0626136
-0.0651922
-0.0677258
-0.0702057
-0.0726233
-0.0749692
-0.0772327
-0.0794017
-0.0814618
-0.00462548
-0.00461859
-0.00461254
-0.00460757
-0.00460324
-0.0045995
-0.00459644
-0.00459412
-0.0045926
-0.00459194
-0.00459222
-0.00459351
-0.00459589
-0.00459946
-0.00460429
-0.00461051
-0.00461821
-0.0046275
-0.00463851
-0.00465136
-0.00466619
-0.00468312
-0.00470231
-0.00472391
-0.00474808
-0.00477497
-0.00480478
-0.00483767
-0.00487383
-0.00491347
-0.00495679
-0.00500402
-0.00505537
-0.00511109
-0.00517145
-0.00523671
-0.00530716
-0.00538312
-0.00546493
-0.00555294
-0.00564756
-0.00574921
-0.00585835
-0.00597552
-0.00610127
-0.00623623
-0.00638112
-0.00653669
-0.00670384
-0.00688352
-0.00707685
-0.00728504
-0.00750949
-0.00775176
-0.00801361
-0.00829702
-0.00860424
-0.00893776
-0.00930041
-0.00969536
-0.0101261
-0.0105966
-0.0111112
-0.0116745
-0.0122918
-0.0129686
-0.013711
-0.0145251
-0.0154176
-0.0163951
-0.0174641
-0.0186313
-0.0199026
-0.0212834
-0.0227784
-0.0243907
-0.0261224
-0.0279735
-0.0299425
-0.0320255
-0.0342169
-0.0365086
-0.0388911
-0.0413528
-0.0438811
-0.0464623
-0.0490824
-0.0517274
-0.0543837
-0.0570382
-0.0596791
-0.0622954
-0.0648771
-0.0674148
-0.0698995
-0.072322
-0.0746726
-0.0769404
-0.0791129
-0.0811758
-0.00488211
-0.00487462
-0.004868
-0.0048625
-0.00485765
-0.00485339
-0.0048498
-0.00484695
-0.0048449
-0.00484371
-0.00484345
-0.00484419
-0.00484601
-0.004849
-0.00485325
-0.00485886
-0.00486593
-0.00487457
-0.0048849
-0.00489705
-0.00491114
-0.0049273
-0.00494569
-0.00496644
-0.00498972
-0.00501569
-0.00504452
-0.00507638
-0.00511148
-0.00514999
-0.00519214
-0.00523813
-0.00528819
-0.00534257
-0.00540152
-0.00546531
-0.00553423
-0.00560859
-0.00568873
-0.005775
-0.00586779
-0.00596752
-0.00607467
-0.00618974
-0.00631329
-0.00644593
-0.00658836
-0.00674134
-0.00690573
-0.00708247
-0.00727265
-0.00747745
-0.00769825
-0.00793656
-0.0081941
-0.0084728
-0.00877484
-0.00910268
-0.00945906
-0.00984705
-0.0102701
-0.010732
-0.0112371
-0.0117898
-0.0123953
-0.0130591
-0.0137869
-0.0145851
-0.01546
-0.0164181
-0.0174662
-0.0186106
-0.0198576
-0.0212125
-0.02268
-0.0242638
-0.025966
-0.0277872
-0.029726
-0.0317793
-0.0339418
-0.0362061
-0.0385629
-0.0410014
-0.0435091
-0.0460728
-0.0486786
-0.0513124
-0.0539606
-0.0566099
-0.0592482
-0.0618639
-0.0644467
-0.0669866
-0.0694741
-0.0718996
-0.0742529
-0.0765229
-0.0786969
-0.0807605
-0.005125
-0.00511698
-0.00510987
-0.00510389
-0.00509858
-0.00509384
-0.00508978
-0.00508645
-0.00508391
-0.00508221
-0.00508144
-0.00508165
-0.00508292
-0.00508535
-0.00508901
-0.005094
-0.00510043
-0.0051084
-0.00511802
-0.00512942
-0.00514271
-0.00515804
-0.00517553
-0.00519535
-0.00521763
-0.00524255
-0.00527026
-0.00530096
-0.00533481
-0.00537201
-0.00541278
-0.00545731
-0.00550584
-0.00555861
-0.00561587
-0.00567789
-0.00574496
-0.00581737
-0.00589547
-0.0059796
-0.00607015
-0.00616754
-0.00627223
-0.00638471
-0.00650554
-0.00663533
-0.00677474
-0.00692453
-0.00708552
-0.00725867
-0.007445
-0.0076457
-0.00786208
-0.00809563
-0.00834802
-0.00862112
-0.00891707
-0.00923824
-0.00958731
-0.00996727
-0.0103815
-0.0108336
-0.0113278
-0.0118686
-0.0124608
-0.01311
-0.0138217
-0.0146021
-0.0154575
-0.0163943
-0.0174193
-0.0185388
-0.019759
-0.0210854
-0.022523
-0.0240755
-0.0257453
-0.0275335
-0.0294392
-0.0314597
-0.0335901
-0.0358237
-0.0381518
-0.0405639
-0.043048
-0.0455912
-0.0481798
-0.0507998
-0.0534373
-0.0560791
-0.0587124
-0.0613255
-0.0639074
-0.0664476
-0.0689361
-0.0713628
-0.0737171
-0.0759876
-0.0781614
-0.0802239
-0.00535457
-0.00534609
-0.00533855
-0.00533217
-0.00532644
-0.00532129
-0.0053168
-0.00531303
-0.00531004
-0.00530788
-0.00530662
-0.00530633
-0.00530708
-0.00530895
-0.00531203
-0.00531641
-0.00532218
-0.00532946
-0.00533834
-0.00534894
-0.00536139
-0.00537581
-0.00539235
-0.00541114
-0.00543233
-0.00545607
-0.00548254
-0.00551191
-0.00554436
-0.00558007
-0.00561925
-0.00566212
-0.00570889
-0.0057598
-0.00581509
-0.00587504
-0.00593994
-0.00601007
-0.00608577
-0.00616738
-0.0062553
-0.00634992
-0.0064517
-0.00656113
-0.00667875
-0.00680515
-0.006941
-0.00708702
-0.00724404
-0.00741296
-0.0075948
-0.0077907
-0.00800195
-0.00823
-0.00847645
-0.00874315
-0.00903214
-0.00934575
-0.00968656
-0.0100575
-0.0104618
-0.010903
-0.0113852
-0.0119128
-0.0124906
-0.0131237
-0.0138178
-0.0145789
-0.0154132
-0.0163271
-0.0173271
-0.0184197
-0.0196111
-0.0209069
-0.0223121
-0.0238308
-0.0254657
-0.0272183
-0.029088
-0.0310727
-0.0331682
-0.0353681
-0.0376644
-0.040047
-0.0425046
-0.0450243
-0.0475929
-0.0501963
-0.0528206
-0.0554524
-0.0580786
-0.060687
-0.063266
-0.0658047
-0.0682925
-0.0707187
-0.0730725
-0.075342
-0.077514
-0.079574
-0.00557129
-0.00556244
-0.00555453
-0.00554781
-0.00554173
-0.00553621
-0.00553134
-0.00552718
-0.00552379
-0.0055212
-0.00551949
-0.00551873
-0.00551897
-0.00552031
-0.00552281
-0.00552657
-0.00553168
-0.00553824
-0.00554636
-0.00555613
-0.00556769
-0.00558116
-0.00559666
-0.00561434
-0.00563434
-0.00565681
-0.00568191
-0.00570981
-0.0057407
-0.00577475
-0.00581216
-0.00585315
-0.00589793
-0.00594673
-0.0059998
-0.0060574
-0.00611982
-0.00618734
-0.0062603
-0.00633904
-0.00642393
-0.00651537
-0.00661381
-0.00671974
-0.00683367
-0.0069562
-0.00708796
-0.00722968
-0.00738215
-0.00754625
-0.00772298
-0.00791345
-0.00811891
-0.00834075
-0.00858054
-0.00884008
-0.00912133
-0.00942656
-0.00975826
-0.0101193
-0.0105127
-0.0109421
-0.0114113
-0.0119246
-0.0124867
-0.0131027
-0.013778
-0.0145185
-0.0153303
-0.0162197
-0.0171933
-0.0182573
-0.019418
-0.0206813
-0.0220522
-0.0235349
-0.0251327
-0.0268472
-0.0286784
-0.0306247
-0.0326824
-0.0348458
-0.0371074
-0.0394577
-0.0418857
-0.0443792
-0.0469248
-0.0495089
-0.0521175
-0.0547368
-0.0573536
-0.0599551
-0.0625293
-0.0650647
-0.0675501
-0.0699745
-0.0723263
-0.0745935
-0.0767625
-0.0788189
-0.00577567
-0.00576652
-0.00575832
-0.00575131
-0.00574494
-0.00573911
-0.00573392
-0.00572942
-0.00572566
-0.00572269
-0.00572056
-0.00571935
-0.00571912
-0.00571993
-0.00572187
-0.00572502
-0.00572947
-0.0057353
-0.00574263
-0.00575155
-0.00576218
-0.00577463
-0.00578904
-0.00580553
-0.00582425
-0.00584534
-0.00586895
-0.00589526
-0.00592444
-0.00595666
-0.00599212
-0.00603103
-0.0060736
-0.00612006
-0.00617065
-0.00622563
-0.00628528
-0.00634989
-0.00641978
-0.00649528
-0.00657677
-0.00666465
-0.00675934
-0.00686132
-0.00697112
-0.0070893
-0.00721649
-0.00735338
-0.00750077
-0.0076595
-0.00783054
-0.00801498
-0.00821401
-0.00842901
-0.00866148
-0.00891316
-0.00918597
-0.00948208
-0.00980391
-0.0101542
-0.010536
-0.0109527
-0.011408
-0.0119062
-0.0124517
-0.0130495
-0.0137049
-0.0144237
-0.0152118
-0.0160756
-0.0170213
-0.0180554
-0.019184
-0.0204131
-0.0217479
-0.023193
-0.0247516
-0.0264259
-0.0282164
-0.0301219
-0.0321393
-0.0342635
-0.0364877
-0.0388028
-0.0411984
-0.0436627
-0.0461827
-0.0487447
-0.0513349
-0.0539392
-0.0565443
-0.0591368
-0.0617043
-0.0642346
-0.0667162
-0.0691372
-0.0714858
-0.0737495
-0.0759146
-0.0779663
-0.00596825
-0.00595887
-0.00595045
-0.00594322
-0.00593661
-0.00593053
-0.00592507
-0.00592027
-0.00591619
-0.00591287
-0.00591037
-0.00590875
-0.00590806
-0.00590838
-0.00590977
-0.00591231
-0.00591609
-0.00592119
-0.00592772
-0.00593575
-0.00594541
-0.00595681
-0.00597006
-0.0059853
-0.00600265
-0.00602226
-0.00604428
-0.00606887
-0.0060962
-0.00612643
-0.00615977
-0.00619642
-0.00623657
-0.00628046
-0.00632833
-0.00638043
-0.00643703
-0.00649843
-0.00656492
-0.00663686
-0.00671459
-0.00679852
-0.00688907
-0.0069867
-0.00709193
-0.00720531
-0.00732745
-0.00745904
-0.00760084
-0.00775367
-0.00791849
-0.00809633
-0.00828838
-0.00849593
-0.00872048
-0.00896368
-0.0092274
-0.00951372
-0.00982501
-0.0101639
-0.0105333
-0.0109366
-0.0113773
-0.0118595
-0.0123876
-0.0129664
-0.0136011
-0.0142973
-0.0150608
-0.0158979
-0.0168147
-0.0178177
-0.0189131
-0.0201067
-0.0214041
-0.0228098
-0.0243276
-0.0259599
-0.0277077
-0.0295703
-0.0315451
-0.0336278
-0.0358119
-0.0380892
-0.0404497
-0.042882
-0.0453735
-0.0479108
-0.0504799
-0.0530668
-0.0556577
-0.0582391
-0.0607979
-0.0633215
-0.0657976
-0.068214
-0.0705583
-0.0728175
-0.0749778
-0.0770241
-0.00614959
-0.00614006
-0.00613148
-0.00612409
-0.0061173
-0.00611103
-0.00610534
-0.0061003
-0.00609595
-0.00609233
-0.00608949
-0.00608749
-0.00608637
-0.00608621
-0.00608707
-0.00608902
-0.00609214
-0.0060965
-0.00610221
-0.00610934
-0.006118
-0.0061283
-0.00614034
-0.00615426
-0.00617017
-0.00618821
-0.00620853
-0.00623128
-0.00625662
-0.00628472
-0.00631578
-0.00634997
-0.00638751
-0.00642862
-0.00647354
-0.0065225
-0.00657579
-0.00663368
-0.00669648
-0.00676452
-0.00683816
-0.00691779
-0.00700382
-0.0070967
-0.00719695
-0.0073051
-0.00742175
-0.00754758
-0.00768331
-0.00782977
-0.00798785
-0.00815859
-0.00834311
-0.00854269
-0.00875876
-0.00899291
-0.00924696
-0.00952292
-0.00982307
-0.0101499
-0.0105064
-0.0108956
-0.011321
-0.0117867
-0.0122967
-0.0128558
-0.0134691
-0.014142
-0.0148802
-0.0156898
-0.016577
-0.017548
-0.0186091
-0.0197663
-0.0210251
-0.0223903
-0.0238658
-0.0254546
-0.027158
-0.0289758
-0.0309061
-0.032945
-0.0350867
-0.0373237
-0.0396465
-0.0420442
-0.0445046
-0.0470143
-0.0495597
-0.0521267
-0.0547011
-0.0572692
-0.0598173
-0.0623323
-0.0648015
-0.067212
-0.0695509
-0.0718048
-0.0739595
-0.0759999
-0.00632026
-0.00631065
-0.00630199
-0.0062945
-0.00628759
-0.00628118
-0.00627532
-0.00627009
-0.00626552
-0.00626164
-0.0062585
-0.00625615
-0.00625464
-0.00625402
-0.00625437
-0.00625574
-0.0062582
-0.00626182
-0.0062667
-0.00627291
-0.00628054
-0.0062897
-0.00630049
-0.00631302
-0.00632742
-0.00634381
-0.00636233
-0.00638312
-0.00640635
-0.00643218
-0.00646079
-0.00649236
-0.0065271
-0.00656522
-0.00660696
-0.00665255
-0.00670226
-0.00675637
-0.00681519
-0.00687903
-0.00694825
-0.00702323
-0.00710438
-0.00719215
-0.00728703
-0.00738955
-0.0075003
-0.00761993
-0.00774915
-0.00788877
-0.00803966
-0.00820281
-0.00837933
-0.00857044
-0.00877752
-0.00900213
-0.009246
-0.00951109
-0.00979958
-0.0101139
-0.0104569
-0.0108315
-0.0112412
-0.0116897
-0.0121811
-0.0127201
-0.0133115
-0.0139605
-0.0146729
-0.0154544
-0.0163113
-0.0172498
-0.0182759
-0.0193959
-0.0206152
-0.0219389
-0.0233712
-0.0249153
-0.0265728
-0.0283443
-0.0302282
-0.0322214
-0.0343187
-0.0365131
-0.0387958
-0.0411563
-0.0435828
-0.0460625
-0.0485816
-0.0511261
-0.0536816
-0.0562341
-0.0587695
-0.0612743
-0.063735
-0.0661383
-0.0684707
-0.0707185
-0.0728671
-0.074901
-0.00648085
-0.00647124
-0.00646255
-0.00645502
-0.00644806
-0.00644155
-0.00643559
-0.00643022
-0.00642546
-0.00642137
-0.00641797
-0.00641531
-0.00641343
-0.0064124
-0.00641225
-0.00641305
-0.00641486
-0.00641775
-0.00642179
-0.00642706
-0.00643364
-0.00644162
-0.00645111
-0.00646221
-0.00647502
-0.00648968
-0.00650631
-0.00652505
-0.00654605
-0.00656947
-0.00659548
-0.00662426
-0.00665602
-0.00669095
-0.0067293
-0.00677128
-0.00681717
-0.00686724
-0.00692179
-0.00698114
-0.00704563
-0.00711564
-0.00719158
-0.00727387
-0.00736301
-0.00745952
-0.00756397
-0.007677
-0.0077993
-0.00793166
-0.00807493
-0.00823006
-0.00839813
-0.00858032
-0.00877798
-0.00899259
-0.00922584
-0.0094796
-0.009756
-0.0100574
-0.0103864
-0.0107461
-0.0111395
-0.0115705
-0.012043
-0.0125614
-0.0131305
-0.0137553
-0.0144415
-0.0151946
-0.0160209
-0.0169263
-0.0179172
-0.0189994
-0.0201786
-0.0214602
-0.0228484
-0.0243468
-0.0259575
-0.0276813
-0.0295174
-0.0314632
-0.0335141
-0.0356638
-0.0379041
-0.0402251
-0.0426154
-0.0450624
-0.0475526
-0.0500721
-0.0526064
-0.0551411
-0.0576618
-0.0601545
-0.0626051
-0.065
-0.067325
-0.0695659
-0.0717078
-0.0737349
-0.00663195
-0.00662241
-0.00661377
-0.00660626
-0.00659928
-0.00659275
-0.00658673
-0.00658126
-0.00657638
-0.00657211
-0.0065685
-0.00656556
-0.00656336
-0.00656193
-0.00656131
-0.00656156
-0.00656273
-0.00656488
-0.00656808
-0.0065724
-0.0065779
-0.00658469
-0.00659283
-0.00660244
-0.00661361
-0.00662646
-0.0066411
-0.00665768
-0.00667634
-0.00669722
-0.00672049
-0.00674633
-0.00677493
-0.00680649
-0.00684123
-0.0068794
-0.00692123
-0.00696701
-0.00701703
-0.0070716
-0.00713107
-0.0071958
-0.00726619
-0.00734267
-0.00742573
-0.00751587
-0.00761365
-0.0077197
-0.00783471
-0.00795941
-0.00809466
-0.00824138
-0.0084006
-0.00857347
-0.0087613
-0.00896552
-0.00918776
-0.00942982
-0.00969376
-0.00998183
-0.0102966
-0.0106409
-0.0110179
-0.0114311
-0.0118844
-0.012382
-0.0129285
-0.0135289
-0.0141886
-0.0149133
-0.0157087
-0.0165809
-0.0175361
-0.0185804
-0.0197193
-0.0209583
-0.0223019
-0.0237539
-0.0253169
-0.0269922
-0.0287793
-0.0306762
-0.0326792
-0.0347824
-0.0369782
-0.0392574
-0.0416091
-0.044021
-0.04648
-0.048972
-0.0514826
-0.0539973
-0.0565012
-0.05898
-0.0614191
-0.0638041
-0.0661207
-0.0683539
-0.0704886
-0.0725086
-0.00677415
-0.00676474
-0.00675621
-0.00674878
-0.00674186
-0.00673535
-0.00672933
-0.00672382
-0.00671886
-0.00671446
-0.00671067
-0.0067075
-0.006705
-0.0067032
-0.00670213
-0.00670185
-0.00670239
-0.00670382
-0.00670617
-0.00670953
-0.00671394
-0.00671949
-0.00672626
-0.00673432
-0.00674379
-0.00675476
-0.00676734
-0.00678166
-0.00679786
-0.00681608
-0.00683647
-0.00685921
-0.00688449
-0.00691249
-0.00694344
-0.00697757
-0.00701513
-0.00705637
-0.00710161
-0.00715113
-0.00720529
-0.00726444
-0.00732899
-0.00739935
-0.00747599
-0.00755942
-0.0076502
-0.00774892
-0.00785627
-0.00797296
-0.00809983
-0.00823777
-0.00838778
-0.00855098
-0.00872863
-0.00892212
-0.00913301
-0.00936306
-0.00961422
-0.00988869
-0.0101889
-0.0105177
-0.010878
-0.0112732
-0.0117071
-0.0121838
-0.0127077
-0.0132836
-0.0139169
-0.0146129
-0.0153775
-0.0162165
-0.0171362
-0.0181423
-0.0192408
-0.0204371
-0.0217359
-0.0231412
-0.024656
-0.0262819
-0.0280191
-0.0298661
-0.0318198
-0.0338749
-0.0360245
-0.0382599
-0.0405708
-0.0429453
-0.0453706
-0.0478328
-0.0503174
-0.0528098
-0.0552949
-0.0577579
-0.0601838
-0.0625578
-0.0648648
-0.0670896
-0.0692165
-0.0712291
-0.00690803
-0.00689882
-0.00689047
-0.00688318
-0.00687637
-0.00686994
-0.00686396
-0.00685847
-0.00685347
-0.006849
-0.00684507
-0.00684171
-0.00683894
-0.0068368
-0.00683531
-0.00683452
-0.00683445
-0.00683514
-0.00683666
-0.00683904
-0.00684234