/*--------------------------------*- C++ -*----------------------------------*\
| =========                 |                                                 |
| \\      /  F ield         | OpenFOAM: The Open Source CFD Toolbox           |
|  \\    /   O peration     | Version:  2406                                  |
|   \\  /    A nd           | Website:  www.openfoam.com                      |
|    \\/     M anipulation  |                                                 |
\*---------------------------------------------------------------------------*/
FoamFile
{
    version     2.0;
    format      ascii;
    arch        "LSB;label=32;scalar=64";
    class       surfaceScalarField;
    location    "9.975";
    object      phi;
}
// * * * * * * * * * * * * * * * * * * * * * * * * * * * * * * * * * * * * * //

dimensions      [0 3 -1 0 0 0 0];

oriented        oriented;

internalField   nonuniform List<scalar> 
79600
(
-2.85625e-09
2.72309e-07
-2.69471e-07
-1.16168e-08
8.17022e-07
-8.08261e-07
-2.66521e-08
1.37018e-06
-1.35515e-06
-4.83284e-08
1.9314e-06
-1.90972e-06
-7.70252e-08
2.50025e-06
-2.47156e-06
-1.13133e-07
3.0763e-06
-3.0402e-06
-1.57051e-07
3.65908e-06
-3.61516e-06
-2.09188e-07
4.2481e-06
-4.19597e-06
-2.69956e-07
4.84287e-06
-4.7821e-06
-3.39774e-07
5.44285e-06
-5.37304e-06
-4.1906e-07
6.04753e-06
-5.96825e-06
-5.08234e-07
6.65637e-06
-6.56719e-06
-6.07713e-07
7.26881e-06
-7.16933e-06
-7.17909e-07
7.88432e-06
-7.77413e-06
-8.39229e-07
8.50237e-06
-8.38105e-06
-9.72072e-07
9.12241e-06
-8.98957e-06
-1.11683e-06
9.74395e-06
-9.59919e-06
-1.27387e-06
1.03665e-05
-1.02094e-05
-1.44357e-06
1.09895e-05
-1.08199e-05
-1.62627e-06
1.16127e-05
-1.143e-05
-1.82231e-06
1.22356e-05
-1.20396e-05
-2.03201e-06
1.28579e-05
-1.26482e-05
-2.25567e-06
1.34792e-05
-1.32556e-05
-2.49357e-06
1.40995e-05
-1.38616e-05
-2.74599e-06
1.47184e-05
-1.4466e-05
-3.01318e-06
1.5336e-05
-1.50688e-05
-3.29539e-06
1.59523e-05
-1.56701e-05
-3.59283e-06
1.65673e-05
-1.62699e-05
-3.90572e-06
1.71814e-05
-1.68685e-05
-4.23428e-06
1.77948e-05
-1.74662e-05
-4.5787e-06
1.8408e-05
-1.80636e-05
-4.9392e-06
1.90215e-05
-1.86611e-05
-5.31596e-06
1.96362e-05
-1.92595e-05
-5.7092e-06
2.02529e-05
-1.98597e-05
-6.11915e-06
2.08727e-05
-2.04627e-05
-6.54604e-06
2.14967e-05
-2.10698e-05
-6.99014e-06
2.21265e-05
-2.16824e-05
-7.45174e-06
2.27637e-05
-2.23021e-05
-7.93116e-06
2.341e-05
-2.29306e-05
-8.42877e-06
2.40678e-05
-2.35701e-05
-8.945e-06
2.47392e-05
-2.4223e-05
-9.48032e-06
2.5427e-05
-2.48917e-05
-1.00353e-05
2.61341e-05
-2.55792e-05
-1.06104e-05
2.68639e-05
-2.62887e-05
-1.12066e-05
2.76199e-05
-2.70238e-05
-1.18244e-05
2.84062e-05
-2.77885e-05
-1.24647e-05
2.92274e-05
-2.8587e-05
-1.31285e-05
3.00882e-05
-2.94243e-05
-1.38169e-05
3.09939e-05
-3.03056e-05
-1.45308e-05
3.19505e-05
-3.12365e-05
-1.52716e-05
3.29641e-05
-3.22233e-05
-1.60406e-05
3.40416e-05
-3.32726e-05
-1.6839e-05
3.519e-05
-3.43916e-05
-1.76683e-05
3.6417e-05
-3.55877e-05
-1.853e-05
3.77306e-05
-3.68689e-05
-1.94254e-05
3.91388e-05
-3.82434e-05
-2.03559e-05
4.065e-05
-3.97194e-05
-2.13231e-05
4.22724e-05
-4.13052e-05
-2.2328e-05
4.40139e-05
-4.3009e-05
-2.33717e-05
4.58821e-05
-4.48383e-05
-2.4455e-05
4.78834e-05
-4.68001e-05
-2.55785e-05
5.00234e-05
-4.88999e-05
-2.67422e-05
5.23058e-05
-5.1142e-05
-2.79459e-05
5.47325e-05
-5.35288e-05
-2.91885e-05
5.73027e-05
-5.60601e-05
-3.04686e-05
6.0013e-05
-5.87329e-05
-3.17838e-05
6.28561e-05
-6.15409e-05
-3.3131e-05
6.58211e-05
-6.44739e-05
-3.45062e-05
6.88928e-05
-6.75177e-05
-3.59044e-05
7.20514e-05
-7.06531e-05
-3.73198e-05
7.5272e-05
-7.38566e-05
-3.87456e-05
7.85251e-05
-7.70994e-05
-4.01741e-05
8.17764e-05
-8.03479e-05
-4.15968e-05
8.49867e-05
-8.35639e-05
-4.30048e-05
8.81131e-05
-8.67051e-05
-4.43886e-05
9.11094e-05
-8.97256e-05
-4.57387e-05
9.39271e-05
-9.2577e-05
-4.70459e-05
9.65169e-05
-9.52097e-05
-4.83017e-05
9.88298e-05
-9.7574e-05
-4.94985e-05
0.000100819
-9.96223e-05
-5.06304e-05
0.000102442
-0.00010131
-5.16934e-05
0.000103663
-0.0001026
-5.26859e-05
0.000104451
-0.000103458
-5.3609e-05
0.000104787
-0.000103864
-5.44663e-05
0.00010466
-0.000103802
-5.52648e-05
0.00010407
-0.000103271
-5.60138e-05
0.000103027
-0.000102278
-5.6725e-05
0.000101551
-0.00010084
-5.74122e-05
9.96674e-05
-9.89802e-05
-5.80901e-05
9.74079e-05
-9.673e-05
-5.87737e-05
9.48054e-05
-9.41218e-05
-5.94774e-05
9.18911e-05
-9.11875e-05
-6.02138e-05
8.86916e-05
-8.79552e-05
-6.09933e-05
8.52256e-05
-8.44461e-05
-6.1823e-05
8.15019e-05
-8.06722e-05
-6.27062e-05
7.75176e-05
-7.66344e-05
-6.36423e-05
7.32583e-05
-7.23222e-05
-6.46268e-05
6.86988e-05
-6.77143e-05
-6.56514e-05
6.38049e-05
-6.27803e-05
5.85359e-05
-6.67047e-05
-5.74827e-05
-2.22147e-09
2.7453e-07
-9.15277e-09
8.23954e-07
-2.11521e-08
1.38218e-06
-3.85919e-08
1.94884e-06
-6.18592e-08
2.52352e-06
-9.13546e-08
3.1058e-06
-1.2749e-07
3.69522e-06
-1.70687e-07
4.2913e-06
-2.21374e-07
4.89356e-06
-2.79986e-07
5.50147e-06
-3.46962e-07
6.11451e-06
-4.22742e-07
6.73215e-06
-5.07765e-07
7.35383e-06
-6.02468e-07
7.97903e-06
-7.07281e-07
8.60718e-06
-8.22631e-07
9.23776e-06
-9.48931e-07
9.87025e-06
-1.08659e-06
1.05041e-05
-1.23599e-06
1.1139e-05
-1.39751e-06
1.17742e-05
-1.57152e-06
1.24096e-05
-1.75836e-06
1.30447e-05
-1.95835e-06
1.36792e-05
-2.17181e-06
1.43129e-05
-2.39903e-06
1.49456e-05
-2.64027e-06
1.55773e-05
-2.89579e-06
1.62078e-05
-3.16583e-06
1.68374e-05
-3.45061e-06
1.74662e-05
-3.75034e-06
1.80945e-05
-4.06523e-06
1.87229e-05
-4.39547e-06
1.93518e-05
-4.74123e-06
1.9982e-05
-5.10272e-06
2.06144e-05
-5.48012e-06
2.12501e-05
-5.87364e-06
2.18902e-05
-6.28348e-06
2.25364e-05
-6.70988e-06
2.31901e-05
-7.1531e-06
2.38533e-05
-7.61343e-06
2.45281e-05
-8.09119e-06
2.52169e-05
-8.58674e-06
2.59225e-05
-9.10051e-06
2.66479e-05
-9.63295e-06
2.73963e-05
-1.01846e-05
2.81715e-05
-1.0756e-05
2.89777e-05
-1.13479e-05
2.98192e-05
-1.19609e-05
3.07012e-05
-1.25959e-05
3.16289e-05
-1.32536e-05
3.26082e-05
-1.39351e-05
3.36456e-05
-1.46411e-05
3.47476e-05
-1.53728e-05
3.59217e-05
-1.61312e-05
3.71754e-05
-1.69173e-05
3.85166e-05
-1.7732e-05
3.99535e-05
-1.85764e-05
4.14944e-05
-1.94514e-05
4.31473e-05
-2.03576e-05
4.49201e-05
-2.12957e-05
4.68202e-05
-2.22661e-05
4.88538e-05
-2.32688e-05
5.10261e-05
-2.43035e-05
5.33405e-05
-2.53697e-05
5.57986e-05
-2.64661e-05
5.83991e-05
-2.7591e-05
6.11379e-05
-2.87421e-05
6.40072e-05
-2.99166e-05
6.69955e-05
-3.11105e-05
7.00868e-05
-3.23197e-05
7.32605e-05
-3.35388e-05
7.64912e-05
-3.47622e-05
7.97485e-05
-3.59833e-05
8.29974e-05
-3.71951e-05
8.61984e-05
-3.83902e-05
8.93082e-05
-3.95612e-05
9.22804e-05
-4.07006e-05
9.50665e-05
-4.18013e-05
9.76177e-05
-4.28572e-05
9.98856e-05
-4.3863e-05
0.000101825
-4.48148e-05
0.000103394
-4.57108e-05
0.000104559
-4.6551e-05
0.000105291
-4.73377e-05
0.000105573
-4.80757e-05
0.000105398
-4.87721e-05
0.000104766
-4.94359e-05
0.000103691
-5.00781e-05
0.000102193
-5.07109e-05
0.0001003
-5.1347e-05
9.80441e-05
-5.19991e-05
9.54575e-05
-5.2679e-05
9.2571e-05
-5.33967e-05
8.94092e-05
-5.41597e-05
8.59887e-05
-5.4973e-05
8.23151e-05
-5.58378e-05
7.83825e-05
-5.67524e-05
7.41729e-05
-5.77114e-05
6.96578e-05
-5.87065e-05
6.48e-05
5.95565e-05
-5.97271e-05
-1.62616e-09
2.76157e-07
-6.79369e-09
8.29121e-07
-1.58615e-08
1.39125e-06
-2.92061e-08
1.96218e-06
-4.72203e-08
2.54153e-06
-7.03116e-08
3.12889e-06
-9.89006e-08
3.72381e-06
-1.33419e-07
4.32582e-06
-1.7431e-07
4.93445e-06
-2.2202e-07
5.54918e-06
-2.77005e-07
6.16949e-06
-3.39722e-07
6.79486e-06
-4.10629e-07
7.42474e-06
-4.90183e-07
8.05858e-06
-5.78837e-07
8.69583e-06
-6.77038e-07
9.33596e-06
-7.85223e-07
9.97843e-06
-9.03823e-07
1.06227e-05
-1.03325e-06
1.12684e-05
-1.17391e-06
1.19149e-05
-1.32618e-06
1.25619e-05
-1.49044e-06
1.3209e-05
-1.66703e-06
1.38558e-05
-1.85628e-06
1.45022e-05
-2.0585e-06
1.51478e-05
-2.27398e-06
1.57927e-05
-2.50298e-06
1.64368e-05
-2.74576e-06
1.70802e-05
-3.00254e-06
1.7723e-05
-3.27353e-06
1.83655e-05
-3.55894e-06
1.90083e-05
-3.85894e-06
1.96518e-05
-4.17371e-06
2.02968e-05
-4.50341e-06
2.09441e-05
-4.8482e-06
2.15949e-05
-5.20824e-06
2.22503e-05
-5.58371e-06
2.29118e-05
-5.97477e-06
2.35811e-05
-6.38161e-06
2.42601e-05
-6.80444e-06
2.49509e-05
-7.24349e-06
2.5656e-05
-7.69901e-06
2.63781e-05
-8.1713e-06
2.71202e-05
-8.66068e-06
2.78857e-05
-9.16751e-06
2.86784e-05
-9.69221e-06
2.95024e-05
-1.02352e-05
3.03623e-05
-1.0797e-05
3.1263e-05
-1.13782e-05
3.22101e-05
-1.19793e-05
3.32093e-05
-1.26009e-05
3.42672e-05
-1.32437e-05
3.53904e-05
-1.39082e-05
3.65863e-05
-1.45953e-05
3.78625e-05
-1.53055e-05
3.92268e-05
-1.60393e-05
4.06874e-05
-1.67974e-05
4.22525e-05
-1.75802e-05
4.39301e-05
-1.8388e-05
4.57279e-05
-1.92209e-05
4.76531e-05
-2.0079e-05
4.97118e-05
-2.09619e-05
5.1909e-05
-2.18691e-05
5.42477e-05
-2.27995e-05
5.67291e-05
-2.3752e-05
5.93516e-05
-2.47247e-05
6.21106e-05
-2.57154e-05
6.49979e-05
-2.67213e-05
6.80015e-05
-2.77393e-05
7.11047e-05
-2.87654e-05
7.42866e-05
-2.97953e-05
7.75211e-05
-3.08242e-05
8.07774e-05
-3.18469e-05
8.40201e-05
-3.28578e-05
8.72093e-05
-3.38512e-05
9.03016e-05
-3.48214e-05
9.32506e-05
-3.5763e-05
9.60081e-05
-3.6671e-05
9.85257e-05
-3.75412e-05
0.000100756
-3.83704e-05
0.000102654
-3.91568e-05
0.000104181
-3.99e-05
0.000105302
-4.06015e-05
0.000105993
-4.12645e-05
0.000106237
-4.18944e-05
0.000106027
-4.2498e-05
0.00010537
-4.30839e-05
0.000104277
-4.36618e-05
0.000102771
-4.42423e-05
0.000100881
-4.48359e-05
9.86378e-05
-4.54531e-05
9.60747e-05
-4.61029e-05
9.32208e-05
-4.67929e-05
9.00992e-05
-4.75284e-05
8.67242e-05
-4.83122e-05
8.30989e-05
-4.91443e-05
7.92146e-05
-5.0022e-05
7.50505e-05
-5.09397e-05
7.05755e-05
-5.18897e-05
6.575e-05
6.0529e-05
-5.28622e-05
-1.05843e-09
2.77215e-07
-4.53879e-09
8.32601e-07
-1.08e-08
1.39751e-06
-2.02199e-08
1.9716e-06
-3.31938e-08
2.55451e-06
-5.01333e-08
3.14583e-06
-7.14648e-08
3.74514e-06
-9.76277e-08
4.35198e-06
-1.29073e-07
4.96589e-06
-1.66259e-07
5.58636e-06
-2.09653e-07
6.21289e-06
-2.59727e-07
6.84494e-06
-3.16953e-07
7.48197e-06
-3.81804e-07
8.12343e-06
-4.54753e-07
8.76878e-06
-5.36265e-07
9.41747e-06
-6.26798e-07
1.0069e-05
-7.26802e-07
1.07227e-05
-8.36712e-07
1.13783e-05
-9.56953e-07
1.20351e-05
-1.08793e-06
1.26929e-05
-1.23003e-06
1.33511e-05
-1.38362e-06
1.40094e-05
-1.54906e-06
1.46676e-05
-1.72666e-06
1.53254e-05
-1.91673e-06
1.59828e-05
-2.11956e-06
1.66396e-05
-2.33538e-06
1.7296e-05
-2.56446e-06
1.7952e-05
-2.80698e-06
1.8608e-05
-3.06315e-06
1.92644e-05
-3.33314e-06
1.99218e-05
-3.61711e-06
2.05807e-05
-3.9152e-06
2.12422e-05
-4.22754e-06
2.19072e-05
-4.55425e-06
2.2577e-05
-4.89545e-06
2.3253e-05
-5.25127e-06
2.39369e-05
-5.62181e-06
2.46306e-05
-6.0072e-06
2.53363e-05
-6.40759e-06
2.60564e-05
-6.82312e-06
2.67936e-05
-7.25396e-06
2.7551e-05
-7.70029e-06
2.8332e-05
-8.16232e-06
2.91404e-05
-8.6403e-06
2.99804e-05
-9.13446e-06
3.08564e-05
-9.6451e-06
3.17736e-05
-1.01725e-05
3.27375e-05
-1.0717e-05
3.37538e-05
-1.12789e-05
3.48291e-05
-1.18586e-05
3.59701e-05
-1.24563e-05
3.7184e-05
-1.30724e-05
3.84785e-05
-1.37071e-05
3.98615e-05
-1.43606e-05
4.13409e-05
-1.50332e-05
4.2925e-05
-1.57247e-05
4.46216e-05
-1.64352e-05
4.64384e-05
-1.71644e-05
4.83823e-05
-1.79119e-05
5.04594e-05
-1.86772e-05
5.26742e-05
-1.94592e-05
5.50297e-05
-2.02569e-05
5.75268e-05
-2.1069e-05
6.01636e-05
-2.18935e-05
6.29351e-05
-2.27284e-05
6.58329e-05
-2.35713e-05
6.88444e-05
-2.44193e-05
7.19527e-05
-2.52692e-05
7.51365e-05
-2.61175e-05
7.83694e-05
-2.69605e-05
8.16204e-05
-2.7794e-05
8.48536e-05
-2.86141e-05
8.80294e-05
-2.94165e-05
9.11041e-05
-3.01974e-05
9.40315e-05
-3.09531e-05
9.67639e-05
-3.16807e-05
9.92532e-05
-3.23777e-05
0.000101453
-3.30429e-05
0.000103319
-3.36759e-05
0.000104814
-3.4278e-05
0.000105904
-3.48515e-05
0.000106566
-3.54005e-05
0.000106785
-3.59303e-05
0.000106557
-3.64475e-05
0.000105887
-3.69598e-05
0.000104789
-3.74757e-05
0.000103287
-3.80037e-05
0.000101409
-3.85526e-05
9.91866e-05
-3.91301e-05
9.66522e-05
-3.97431e-05
9.38338e-05
-4.03969e-05
9.0753e-05
-4.10946e-05
8.7422e-05
-4.18376e-05
8.38419e-05
-4.26248e-05
8.00017e-05
-4.34529e-05
7.58786e-05
-4.43167e-05
7.14393e-05
-4.52092e-05
6.66425e-05
6.14419e-05
-4.6122e-05
-5.20548e-10
2.77735e-07
-2.40113e-09
8.34482e-07
-5.99803e-09
1.40111e-06
-1.16874e-08
1.97729e-06
-1.98645e-08
2.56269e-06
-3.09421e-08
3.15691e-06
-4.53492e-08
3.75954e-06
-6.35291e-08
4.37016e-06
-8.59378e-08
4.9883e-06
-1.13042e-07
5.61347e-06
-1.45317e-07
6.24516e-06
-1.83243e-07
6.88286e-06
-2.27306e-07
7.52603e-06
-2.77992e-07
8.17412e-06
-3.35787e-07
8.82658e-06
-4.01172e-07
9.48286e-06
-4.74622e-07
1.01424e-05
-5.56603e-07
1.08047e-05
-6.47571e-07
1.14693e-05
-7.47966e-07
1.21355e-05
-8.58213e-07
1.28031e-05
-9.78719e-07
1.34716e-05
-1.10987e-06
1.41406e-05
-1.25203e-06
1.48098e-05
-1.40554e-06
1.5479e-05
-1.57072e-06
1.6148e-05
-1.74786e-06
1.68168e-05
-1.93721e-06
1.74853e-05
-2.13904e-06
1.81539e-05
-2.35353e-06
1.88225e-05
-2.5809e-06
1.94918e-05
-2.82129e-06
2.01622e-05
-3.07485e-06
2.08343e-05
-3.3417e-06
2.1509e-05
-3.62194e-06
2.21875e-05
-3.91567e-06
2.28707e-05
-4.22295e-06
2.35603e-05
-4.54384e-06
2.42578e-05
-4.87839e-06
2.49652e-05
-5.22667e-06
2.56846e-05
-5.58871e-06
2.64184e-05
-5.96455e-06
2.71694e-05
-6.35425e-06
2.79407e-05
-6.75787e-06
2.87356e-05
-7.17546e-06
2.9558e-05
-7.60708e-06
3.0412e-05
-8.0528e-06
3.13021e-05
-8.51271e-06
3.22335e-05
-8.98686e-06
3.32116e-05
-9.47532e-06
3.42423e-05
-9.97816e-06
3.53319e-05
-1.04954e-05
3.64873e-05
-1.10271e-05
3.77157e-05
-1.15731e-05
3.90246e-05
-1.21335e-05
4.04218e-05
-1.2708e-05
4.19155e-05
-1.32964e-05
4.35135e-05
-1.38985e-05
4.52237e-05
-1.45137e-05
4.70536e-05
-1.51414e-05
4.90101e-05
-1.5781e-05
5.1099e-05
-1.64316e-05
5.33247e-05
-1.7092e-05
5.56901e-05
-1.77609e-05
5.81957e-05
-1.84369e-05
6.08396e-05
-1.91182e-05
6.36164e-05
-1.9803e-05
6.65176e-05
-2.04889e-05
6.95303e-05
-2.11737e-05
7.26376e-05
-2.18549e-05
7.58177e-05
-2.25297e-05
7.90442e-05
-2.31953e-05
8.2286e-05
-2.38491e-05
8.55074e-05
-2.44881e-05
8.86684e-05
-2.51098e-05
9.17258e-05
-2.5712e-05
9.46337e-05
-2.62928e-05
9.73447e-05
-2.68509e-05
9.98113e-05
-2.73856e-05
0.000101988
-2.78973e-05
0.000103831
-2.83871e-05
0.000105303
-2.88573e-05
0.000106374
-2.93111e-05
0.00010702
-2.97531e-05
0.000107227
-3.01884e-05
0.000106993
-3.06232e-05
0.000106322
-3.10643e-05
0.00010523
-3.15184e-05
0.000103741
-3.19926e-05
0.000101883
-3.24934e-05
9.96873e-05
-3.30263e-05
9.71852e-05
-3.35961e-05
9.44036e-05
-3.42058e-05
9.13627e-05
-3.48571e-05
8.80733e-05
-3.55499e-05
8.45347e-05
-3.62824e-05
8.07342e-05
-3.70512e-05
7.66474e-05
-3.78515e-05
7.22396e-05
-3.86774e-05
6.74684e-05
6.22866e-05
-3.95221e-05
-1.55592e-11
2.77751e-07
-3.91912e-10
8.34858e-07
-1.48017e-09
1.40219e-06
-3.65268e-09
1.97946e-06
-7.30168e-09
2.56633e-06
-1.28382e-08
3.16244e-06
-2.06907e-08
3.7674e-06
-3.13031e-08
4.38078e-06
-4.51337e-08
5.00213e-06
-6.26523e-08
5.63099e-06
-8.43392e-08
6.26685e-06
-1.10682e-07
6.9092e-06
-1.42174e-07
7.55752e-06
-1.7931e-07
8.21125e-06
-2.22586e-07
8.86985e-06
-2.72497e-07
9.53277e-06
-3.29529e-07
1.01994e-05
-3.94163e-07
1.08694e-05
-4.6687e-07
1.1542e-05
-5.48104e-07
1.22168e-05
-6.38308e-07
1.28933e-05
-7.37902e-07
1.35712e-05
-8.47288e-07
1.42499e-05
-9.66846e-07
1.49293e-05
-1.09693e-06
1.5609e-05
-1.23787e-06
1.62889e-05
-1.38996e-06
1.69689e-05
-1.55348e-06
1.76489e-05
-1.72867e-06
1.8329e-05
-1.91574e-06
1.90096e-05
-2.11488e-06
1.96909e-05
-2.32625e-06
2.03735e-05
-2.54997e-06
2.1058e-05
-2.78614e-06
2.17452e-05
-3.03484e-06
2.24362e-05
-3.29611e-06
2.3132e-05
-3.57e-06
2.38342e-05
-3.8565e-06
2.45443e-05
-4.15562e-06
2.52643e-05
-4.46731e-06
2.59963e-05
-4.79155e-06
2.67427e-05
-5.12827e-06
2.75062e-05
-5.47743e-06
2.82899e-05
-5.83894e-06
2.90971e-05
-6.21272e-06
2.99318e-05
-6.59868e-06
3.07979e-05
-6.9967e-06
3.17002e-05
-7.40667e-06
3.26435e-05
-7.82843e-06
3.36334e-05
-8.26183e-06
3.46757e-05
-8.70665e-06
3.57767e-05
-9.16268e-06
3.69433e-05
-9.62961e-06
3.81826e-05
-1.01071e-05
3.95021e-05
-1.05948e-05
4.09095e-05
-1.10922e-05
4.24128e-05
-1.15986e-05
4.40199e-05
-1.21135e-05
4.57386e-05
-1.26361e-05
4.75762e-05
-1.31655e-05
4.95394e-05
-1.37005e-05
5.1634e-05
-1.42402e-05
5.38644e-05
-1.47831e-05
5.6233e-05
-1.53279e-05
5.87406e-05
-1.5873e-05
6.13847e-05
-1.64168e-05
6.41602e-05
-1.69575e-05
6.70583e-05
-1.74933e-05
7.00661e-05
-1.80222e-05
7.31665e-05
-1.85424e-05
7.63379e-05
-1.9052e-05
7.95538e-05
-1.95491e-05
8.27831e-05
-2.00322e-05
8.59904e-05
-2.04997e-05
8.91359e-05
-2.09505e-05
9.21767e-05
-2.13839e-05
9.50671e-05
-2.17996e-05
9.77603e-05
-2.21978e-05
0.00010021
-2.25796e-05
0.000102369
-2.29467e-05
0.000104198
-2.33014e-05
0.000105658
-2.3647e-05
0.00010672
-2.39874e-05
0.00010736
-2.43273e-05
0.000107567
-2.46719e-05
0.000107337
-2.50266e-05
0.000106676
-2.5397e-05
0.000105601
-2.57887e-05
0.000104133
-2.62068e-05
0.000102301
-2.66558e-05
0.000100136
-2.71394e-05
9.76688e-05
-2.76601e-05
9.49243e-05
-2.82193e-05
9.19219e-05
-2.88171e-05
8.86711e-05
-2.94524e-05
8.517e-05
-3.01229e-05
8.14047e-05
-3.08253e-05
7.73498e-05
-3.15554e-05
7.29697e-05
-3.23085e-05
6.82215e-05
6.30576e-05
-3.30795e-05
4.54331e-10
2.77297e-07
1.48041e-09
8.33832e-07
2.73399e-09
1.40094e-06
3.84912e-09
1.97835e-06
4.43913e-09
2.56574e-06
4.0976e-09
3.16278e-06
2.39974e-09
3.7691e-06
-1.09613e-09
4.38427e-06
-6.84688e-09
5.00788e-06
-1.53227e-08
5.63946e-06
-2.70049e-08
6.27853e-06
-4.23841e-08
6.92458e-06
-6.19573e-08
7.57709e-06
-8.62258e-08
8.23552e-06
-1.15692e-07
8.89932e-06
-1.50859e-07
9.56794e-06
-1.92223e-07
1.02408e-05
-2.40274e-07
1.09174e-05
-2.95495e-07
1.15972e-05
-3.58354e-07
1.22796e-05
-4.29303e-07
1.29643e-05
-5.08777e-07
1.36506e-05
-5.97191e-07
1.43384e-05
-6.94936e-07
1.50271e-05
-8.02378e-07
1.57165e-05
-9.19854e-07
1.64064e-05
-1.04767e-06
1.70967e-05
-1.18612e-06
1.77873e-05
-1.33543e-06
1.84784e-05
-1.49583e-06
1.917e-05
-1.66749e-06
1.98626e-05
-1.85056e-06
2.05566e-05
-2.04517e-06
2.12526e-05
-2.25138e-06
2.19514e-05
-2.46925e-06
2.2654e-05
-2.69879e-06
2.33616e-05
-2.94001e-06
2.40754e-05
-3.19285e-06
2.47972e-05
-3.45724e-06
2.55287e-05
-3.7331e-06
2.62721e-05
-4.0203e-06
2.70299e-05
-4.3187e-06
2.78046e-05
-4.62814e-06
2.85993e-05
-4.9484e-06
2.94174e-05
-5.27929e-06
3.02627e-05
-5.62055e-06
3.11392e-05
-5.9719e-06
3.20515e-05
-6.33304e-06
3.30047e-05
-6.70363e-06
3.4004e-05
-7.08327e-06
3.50553e-05
-7.47152e-06
3.6165e-05
-7.86791e-06
3.73397e-05
-8.27187e-06
3.85866e-05
-8.68277e-06
3.9913e-05
-9.09991e-06
4.13267e-05
-9.52249e-06
4.28354e-05
-9.94964e-06
4.44471e-05
-1.03804e-05
4.61693e-05
-1.08136e-05
4.80094e-05
-1.12481e-05
4.99739e-05
-1.16826e-05
5.20685e-05
-1.21157e-05
5.42975e-05
-1.2546e-05
5.66633e-05
-1.29719e-05
5.91665e-05
-1.33919e-05
6.18047e-05
-1.38044e-05
6.45727e-05
-1.42077e-05
6.74616e-05
-1.46005e-05
7.04588e-05
-1.49811e-05
7.35471e-05
-1.53483e-05
7.67051e-05
-1.57011e-05
7.99065e-05
-1.60384e-05
8.31205e-05
-1.63597e-05
8.63117e-05
-1.66648e-05
8.9441e-05
-1.69539e-05
9.24657e-05
-1.72275e-05
9.53408e-05
-1.7487e-05
9.80198e-05
-1.7734e-05
0.000100457
-1.7971e-05
0.000102606
-1.82008e-05
0.000104428
-1.8427e-05
0.000105884
-1.86537e-05
0.000106946
-1.88853e-05
0.000107592
-1.91266e-05
0.000107809
-1.93825e-05
0.000107593
-1.96579e-05
0.000106952
-1.99574e-05
0.0001059
-2.02851e-05
0.00010446
-2.06445e-05
0.00010266
-2.10383e-05
0.00010053
-2.14682e-05
9.80987e-05
-2.1935e-05
9.53911e-05
-2.24384e-05
9.24254e-05
-2.29774e-05
8.92101e-05
-2.35499e-05
8.57425e-05
-2.41534e-05
8.20082e-05
-2.47847e-05
7.79811e-05
-2.54405e-05
7.36255e-05
-2.61173e-05
6.88982e-05
6.37519e-05
-2.68115e-05
8.87684e-10
2.76409e-07
3.20937e-09
8.31511e-07
6.62971e-09
1.39752e-06
1.07915e-08
1.97419e-06
1.5316e-08
2.56122e-06
1.9804e-08
3.1583e-06
2.38372e-08
3.76506e-06
2.69792e-08
4.38113e-06
2.87776e-08
5.00608e-06
2.87655e-08
5.63947e-06
2.64635e-08
6.28083e-06
2.13819e-08
6.92967e-06
1.3023e-08
7.58545e-06
8.83595e-10
8.24766e-06
-1.55426e-08
8.91575e-06
-3.67615e-08
9.58915e-06
-6.32765e-08
1.02673e-05
-9.55855e-08
1.09497e-05
-1.34177e-07
1.16358e-05
-1.79529e-07
1.2325e-05
-2.32104e-07
1.30168e-05
-2.92346e-07
1.37109e-05
-3.6068e-07
1.44067e-05
-4.37506e-07
1.51039e-05
-5.23201e-07
1.58022e-05
-6.1811e-07
1.65013e-05
-7.2255e-07
1.72011e-05
-8.36805e-07
1.79016e-05
-9.61125e-07
1.86027e-05
-1.09572e-06
1.93046e-05
-1.24078e-06
2.00077e-05
-1.39643e-06
2.07123e-05
-1.56278e-06
2.1419e-05
-1.7399e-06
2.21285e-05
-1.92781e-06
2.28419e-05
-2.1265e-06
2.35602e-05
-2.33592e-06
2.42848e-05
-2.55598e-06
2.50172e-05
-2.78657e-06
2.57593e-05
-3.02752e-06
2.65131e-05
-3.27864e-06
2.7281e-05
-3.5397e-06
2.80656e-05
-3.81044e-06
2.887e-05
-4.09054e-06
2.96975e-05
-4.37966e-06
3.05518e-05
-4.67743e-06
3.14369e-05
-4.9834e-06
3.23575e-05
-5.2971e-06
3.33183e-05
-5.61799e-06
3.43249e-05
-5.94549e-06
3.53828e-05
-6.27894e-06
3.64984e-05
-6.6176e-06
3.76784e-05
-6.96068e-06
3.89297e-05
-7.30728e-06
4.02596e-05
-7.65641e-06
4.16758e-05
-8.00701e-06
4.3186e-05
-8.35789e-06
4.4798e-05
-8.70779e-06
4.65192e-05
-9.05533e-06
4.83569e-05
-9.39906e-06
5.03177e-05
-9.73746e-06
5.24069e-05
-1.00689e-05
5.4629e-05
-1.03919e-05
5.69863e-05
-1.07046e-05
5.94792e-05
-1.10056e-05
6.21057e-05
-1.12933e-05
6.48604e-05
-1.15664e-05
6.77347e-05
-1.18235e-05
7.07159e-05
-1.20636e-05
7.37873e-05
-1.2286e-05
7.69275e-05
-1.24903e-05
8.01108e-05
-1.26764e-05
8.33066e-05
-1.28447e-05
8.648e-05
-1.29961e-05
8.95924e-05
-1.3132e-05
9.26016e-05
-1.32544e-05
9.54631e-05
-1.33657e-05
9.81311e-05
-1.3469e-05
0.00010056
-1.35681e-05
0.000102705
-1.36668e-05
0.000104527
-1.37699e-05
0.000105987
-1.38819e-05
0.000107058
-1.4008e-05
0.000107718
-1.41528e-05
0.000107954
-1.43212e-05
0.000107761
-1.45173e-05
0.000107148
-1.47448e-05
0.000106128
-1.50066e-05
0.000104722
-1.53045e-05
0.000102958
-1.56398e-05
0.000100865
-1.60123e-05
9.84712e-05
-1.64212e-05
9.58e-05
-1.6865e-05
9.28692e-05
-1.73414e-05
8.96865e-05
-1.78478e-05
8.62489e-05
-1.83813e-05
8.25417e-05
-1.89391e-05
7.85389e-05
-1.95186e-05
7.4205e-05
-2.01175e-05
6.94971e-05
6.43682e-05
-2.07339e-05
1.28343e-09
2.75126e-07
4.79061e-09
8.28003e-07
1.01972e-08
1.39211e-06
1.71564e-08
1.96723e-06
2.52998e-08
2.55308e-06
3.42378e-08
3.14936e-06
4.3561e-08
3.75574e-06
5.28415e-08
4.37185e-06
6.16341e-08
4.99729e-06
6.94783e-08
5.63163e-06
7.59e-08
6.27441e-06
8.04136e-08
6.92515e-06
8.25243e-08
7.58334e-06
8.17304e-08
8.24846e-06
7.75263e-08
8.91995e-06
6.94048e-08
9.59728e-06
5.68601e-08
1.02799e-05
3.93911e-08
1.09672e-05
1.65043e-08
1.16587e-05
-1.22831e-08
1.23538e-05
-4.744e-08
1.3052e-05
-8.94183e-08
1.37529e-05
-1.3865e-07
1.44559e-05
-1.95542e-07
1.51608e-05
-2.60479e-07
1.58671e-05
-3.33812e-07
1.65746e-05
-4.15865e-07
1.72832e-05
-5.06924e-07
1.79926e-05
-6.07243e-07
1.8703e-05
-7.17036e-07
1.94144e-05
-8.36476e-07
2.01271e-05
-9.65698e-07
2.08415e-05
-1.10479e-06
2.15581e-05
-1.25381e-06
2.22776e-05
-1.41276e-06
2.30009e-05
-1.5816e-06
2.37291e-05
-1.76025e-06
2.44635e-05
-1.94857e-06
2.52056e-05
-2.14641e-06
2.59571e-05
-2.35354e-06
2.67202e-05
-2.5697e-06
2.74971e-05
-2.79457e-06
2.82905e-05
-3.02782e-06
2.91033e-05
-3.26901e-06
2.99387e-05
-3.51771e-06
3.08005e-05
-3.77338e-06
3.16926e-05
-4.03547e-06
3.26196e-05
-4.30333e-06
3.35862e-05
-4.57626e-06
3.45978e-05
-4.85348e-06
3.566e-05
-5.13412e-06
3.67791e-05
-5.41726e-06
3.79615e-05
-5.70184e-06
3.92142e-05
-5.98674e-06
4.05445e-05
-6.27072e-06
4.19598e-05
-6.55244e-06
4.34677e-05
-6.83047e-06
4.5076e-05
-7.10326e-06
4.6792e-05
-7.3692e-06
4.86229e-05
-7.62658e-06
5.05751e-05
-7.87367e-06
5.2654e-05
-8.10868e-06
5.4864e-05
-8.32986e-06
5.72074e-05
-8.53548e-06
5.96849e-05
-8.72394e-06
6.22942e-05
-8.89375e-06
6.50302e-05
-9.04368e-06
6.78846e-05
-9.17272e-06
7.08449e-05
-9.28024e-06
7.38948e-05
-9.36598e-06
7.70133e-05
-9.43015e-06
8.0175e-05
-9.47348e-06
8.33499e-05
-9.49724e-06
8.65038e-05
-9.50331e-06
8.95985e-05
-9.4942e-06
9.25925e-05
-9.47303e-06
9.54419e-05
-9.44351e-06
9.81016e-05
-9.40993e-06
0.000100526
-9.37704e-06
0.000102672
-9.34998e-06
0.000104499
-9.33412e-06
0.000105972
-9.3349e-06
0.000107059
-9.35764e-06
0.000107741
-9.40733e-06
0.000108003
-9.48841e-06
0.000107843
-9.60457e-06
0.000107264
-9.7586e-06
0.000106282
-9.95222e-06
0.000104916
-1.01861e-05
0.000103192
-1.04598e-05
0.000101139
-1.07718e-05
9.87832e-05
-1.112e-05
9.61482e-05
-1.15014e-05
9.32506e-05
-1.19129e-05
9.0098e-05
-1.23512e-05
8.66872e-05
-1.28134e-05
8.30039e-05
-1.3297e-05
7.90225e-05
-1.38e-05
7.4708e-05
-1.43214e-05
7.00185e-05
6.49074e-05
-1.48605e-05
1.64095e-09
2.73485e-07
6.22189e-09
8.23422e-07
1.34308e-08
1.38491e-06
2.29333e-08
1.95773e-06
3.4373e-08
2.54164e-06
4.73723e-08
3.13636e-06
6.15333e-08
3.74158e-06
7.64387e-08
4.35694e-06
9.16536e-08
4.98207e-06
1.06727e-07
5.61656e-06
1.21192e-07
6.25995e-06
1.34572e-07
6.91177e-06
1.46377e-07
7.57154e-06
1.56111e-07
8.23872e-06
1.63272e-07
8.91279e-06
1.67356e-07
9.59319e-06
1.67857e-07
1.02794e-05
1.64274e-07
1.09708e-05
1.56113e-07
1.16668e-05
1.42889e-07
1.2367e-05
1.24129e-07
1.30708e-05
9.93782e-08
1.37776e-05
6.81997e-08
1.44871e-05
3.01804e-08
1.51988e-05
-1.50671e-08
1.59124e-05
-6.79008e-08
1.66275e-05
-1.28647e-07
1.73439e-05
-1.97596e-07
1.80616e-05
-2.75002e-07
1.87804e-05
-3.61078e-07
1.95005e-05
-4.55997e-07
2.0222e-05
-5.59886e-07
2.09454e-05
-6.72827e-07
2.1671e-05
-7.94857e-07
2.23996e-05
-9.25961e-07
2.3132e-05
-1.06608e-06
2.38692e-05
-1.2151e-06
2.46125e-05
-1.37285e-06
2.53633e-05
-1.53912e-06
2.61234e-05
-1.71365e-06
2.68947e-05
-1.8961e-06
2.76796e-05
-2.08609e-06
2.84805e-05
-2.2832e-06
2.93004e-05
-2.48691e-06
3.01424e-05
-2.69666e-06
3.10102e-05
-2.91182e-06
3.19078e-05
-3.13169e-06
3.28395e-05
-3.3555e-06
3.381e-05
-3.58237e-06
3.48247e-05
-3.81136e-06
3.5889e-05
-4.04143e-06
3.70092e-05
-4.27144e-06
3.81915e-05
-4.50013e-06
3.94429e-05
-4.72617e-06
4.07705e-05
-4.94807e-06
4.21817e-05
-5.16427e-06
4.36839e-05
-5.37308e-06
4.52848e-05
-5.57274e-06
4.69917e-05
-5.76139e-06
4.88115e-05
-5.9371e-06
5.07508e-05
-6.09794e-06
5.28148e-05
-6.24193e-06
5.5008e-05
-6.3672e-06
5.73327e-05
-6.47193e-06
5.97896e-05
-6.55447e-06
6.23767e-05
-6.6134e-06
6.50892e-05
-6.64758e-06
6.79188e-05
-6.65626e-06
7.08536e-05
-6.6391e-06
7.38776e-05
-6.59628e-06
7.69705e-05
-6.52858e-06
8.01073e-05
-6.4374e-06
8.32587e-05
-6.32479e-06
8.63912e-05
-6.19354e-06
8.94672e-05
-6.04713e-06
9.24461e-05
-5.88972e-06
9.52845e-05
-5.72612e-06
9.7938e-05
-5.56168e-06
0.000100362
-5.4022e-06
0.000102513
-5.25375e-06
0.000104351
-5.12251e-06
0.00010584
-5.01453e-06
0.000106951
-4.93553e-06
0.000107662
-4.89062e-06
0.000107958
-4.88408e-06
0.000107836
-4.91919e-06
0.000107299
-4.99799e-06
0.00010636
-5.12128e-06
0.000105039
-5.28854e-06
0.00010336
-5.49808e-06
0.000101349
-5.74716e-06
9.90323e-05
-6.0323e-06
9.64333e-05
-6.34957e-06
9.35678e-05
-6.69496e-06
9.04434e-05
-7.06475e-06
8.7057e-05
-7.45581e-06
8.3395e-05
-7.86587e-06
7.94326e-05
-8.2937e-06
7.51359e-05
-8.7391e-06
7.04639e-05
6.53712e-05
-9.20295e-06
1.96036e-09
2.71524e-07
7.50271e-09
8.1788e-07
1.63288e-08
1.37608e-06
2.81183e-08
1.94594e-06
4.25288e-08
2.52723e-06
5.91965e-08
3.11969e-06
7.77368e-08
3.72304e-06
9.77457e-08
4.33693e-06
1.18801e-07
4.96102e-06
1.40463e-07
5.59489e-06
1.62278e-07
6.23813e-06
1.83776e-07
6.89027e-06
2.0448e-07
7.55083e-06
2.239e-07
8.2193e-06
2.41541e-07
8.89515e-06
2.56905e-07
9.57783e-06
2.69492e-07
1.02668e-05
2.78803e-07
1.09615e-05
2.84346e-07
1.16613e-05
2.85637e-07
1.23657e-05
2.82204e-07
1.30742e-05
2.73589e-07
1.37862e-05
2.59355e-07
1.45013e-05
2.39086e-07
1.52191e-05
2.12393e-07
1.59391e-05
1.78913e-07
1.6661e-05
1.38319e-07
1.73845e-05
9.03192e-08
1.81096e-05
3.4658e-08
1.88361e-05
-2.88768e-08
1.9564e-05
-1.00454e-07
2.02936e-05
-1.80197e-07
2.10251e-05
-2.68178e-07
2.1759e-05
-3.64422e-07
2.24958e-05
-4.68898e-07
2.32365e-05
-5.81524e-07
2.39818e-05
-7.02161e-07
2.47331e-05
-8.30612e-07
2.54918e-05
-9.66621e-07
2.62594e-05
-1.10987e-06
2.7038e-05
-1.25998e-06
2.78297e-05
-1.41652e-06
2.8637e-05
-1.57895e-06
2.94628e-05
-1.74671e-06
3.03102e-05
-1.91914e-06
3.11827e-05
-2.0955e-06
3.20841e-05
-2.27496e-06
3.30189e-05
-2.45663e-06
3.39917e-05
-2.63951e-06
3.50075e-05
-2.82248e-06
3.6072e-05
-3.00434e-06
3.7191e-05
-3.18378e-06
3.8371e-05
-3.35936e-06
3.96185e-05
-3.52952e-06
4.09407e-05
-3.69259e-06
4.23448e-05
-3.84679e-06
4.38381e-05
-3.99022e-06
4.54282e-05
-4.12089e-06
4.71223e-05
-4.23673e-06
4.89274e-05
-4.33561e-06
5.08497e-05
-4.4154e-06
5.28946e-05
-4.47398e-06
5.50665e-05
-4.50932e-06
5.7368e-05
-4.51952e-06
5.97998e-05
-4.50289e-06
6.23601e-05
-4.45802e-06
6.50443e-05
-4.38388e-06
6.78446e-05
-4.27988e-06
7.07496e-05
-4.14594e-06
7.37437e-05
-3.98263e-06
7.68071e-05
-3.79119e-06
7.99158e-05
-3.5736e-06
8.30411e-05
-3.3326e-06
8.61502e-05
-3.07176e-06
8.92064e-05
-2.79541e-06
9.21697e-05
-2.50866e-06
9.49978e-05
-2.21727e-06
9.76466e-05
-1.92756e-06
0.000100072
-1.64627e-06
0.000102232
-1.38034e-06
0.000104085
-1.13669e-06
0.000105597
-9.21981e-07
0.000106737
-7.42315e-07
0.000107482
-6.02979e-07
0.000107819
-5.08185e-07
0.000107741
-4.60867e-07
0.000107252
-4.62532e-07
0.000106362
-5.13206e-07
0.00010509
-6.1146e-07
0.000103458
-7.54545e-07
0.000101492
-9.38643e-07
9.92164e-05
-1.15921e-06
9.66539e-05
-1.41137e-06
9.382e-05
-1.69039e-06
9.07224e-05
-1.99206e-06
8.73587e-05
-2.31312e-06
8.3716e-05
-2.65148e-06
7.97709e-05
-3.00643e-06
7.54908e-05
-3.37865e-06
7.08361e-05
6.57627e-05
-3.77012e-06
2.24181e-09
2.69283e-07
8.63388e-09
8.11488e-07
1.8893e-08
1.36582e-06
3.27141e-08
1.93211e-06
4.977e-08
2.51017e-06
6.97125e-08
3.09975e-06
9.21725e-08
3.70058e-06
1.16761e-07
4.31235e-06
1.4307e-07
4.93471e-06
1.70676e-07
5.56729e-06
1.99137e-07
6.20967e-06
2.27997e-07
6.86141e-06
2.56791e-07
7.52204e-06
2.8504e-07
8.19105e-06
3.12259e-07
8.86793e-06
3.37959e-07
9.55213e-06
3.61647e-07
1.02431e-05
3.82831e-07
1.09403e-05
4.01025e-07
1.16431e-05
4.15749e-07
1.2351e-05
4.26532e-07
1.30634e-05
4.32921e-07
1.37798e-05
4.34478e-07
1.44998e-05
4.30787e-07
1.52228e-05
4.21458e-07
1.59484e-05
4.06131e-07
1.66763e-05
3.84475e-07
1.74062e-05
3.56199e-07