/*--------------------------------*- C++ -*----------------------------------*\
| =========                 |                                                 |
| \\      /  F ield         | OpenFOAM: The Open Source CFD Toolbox           |
|  \\    /   O peration     | Version:  2406                                  |
|   \\  /    A nd           | Website:  www.openfoam.com                      |
|    \\/     M anipulation  |                                                 |
\*---------------------------------------------------------------------------*/
FoamFile
{
    version     2.0;
    format      ascii;
    arch        "LSB;label=32;scalar=64";
    class       volVectorField;
    location    "9.975";
    object      U;
}
// * * * * * * * * * * * * * * * * * * * * * * * * * * * * * * * * * * * * * //

dimensions      [0 1 -1 0 0 0 0];

internalField   nonuniform List<vector> 
40000
(
(-1.72932e-06 0.00270005 0)
(-1.16651e-05 0.00796925 0)
(-3.48841e-05 0.0131476 0)
(-7.14169e-05 0.0182315 0)
(-0.000121518 0.0232175 0)
(-0.000185939 0.0281022 0)
(-0.000265517 0.0328823 0)
(-0.000361068 0.0375546 0)
(-0.000473408 0.042116 0)
(-0.000603364 0.0465637 0)
(-0.00075177 0.0508948 0)
(-0.000919463 0.0551069 0)
(-0.00110728 0.0591978 0)
(-0.00131604 0.0631655 0)
(-0.00154657 0.0670081 0)
(-0.00179967 0.0707245 0)
(-0.00207612 0.0743134 0)
(-0.00237669 0.0777743 0)
(-0.00270212 0.0811067 0)
(-0.00305312 0.0843109 0)
(-0.00343037 0.0873874 0)
(-0.00383453 0.0903371 0)
(-0.00426621 0.0931615 0)
(-0.00472601 0.0958626 0)
(-0.00521446 0.0984428 0)
(-0.00573211 0.100905 0)
(-0.00627943 0.103253 0)
(-0.00685689 0.10549 0)
(-0.00746493 0.107621 0)
(-0.00810398 0.109651 0)
(-0.00877445 0.111586 0)
(-0.00947672 0.113432 0)
(-0.0102112 0.115195 0)
(-0.0109783 0.116883 0)
(-0.0117785 0.118503 0)
(-0.0126122 0.120065 0)
(-0.0134799 0.121576 0)
(-0.0143821 0.123047 0)
(-0.0153195 0.124487 0)
(-0.0162928 0.125909 0)
(-0.0173028 0.127322 0)
(-0.0183502 0.12874 0)
(-0.0194362 0.130174 0)
(-0.0205619 0.13164 0)
(-0.0217285 0.133151 0)
(-0.0229376 0.134723 0)
(-0.0241907 0.136372 0)
(-0.0254896 0.138115 0)
(-0.0268362 0.139969 0)
(-0.0282328 0.141954 0)
(-0.0296817 0.144088 0)
(-0.0311852 0.146391 0)
(-0.0327461 0.148884 0)
(-0.0343672 0.151586 0)
(-0.0360512 0.154518 0)
(-0.037801 0.157699 0)
(-0.0396196 0.161148 0)
(-0.0415096 0.164881 0)
(-0.0434738 0.168913 0)
(-0.0455143 0.173253 0)
(-0.0476331 0.177908 0)
(-0.0498316 0.18288 0)
(-0.0521104 0.188163 0)
(-0.0544693 0.193746 0)
(-0.0569072 0.199606 0)
(-0.0594215 0.205715 0)
(-0.0620086 0.212032 0)
(-0.0646629 0.218505 0)
(-0.0673775 0.225073 0)
(-0.0701435 0.231661 0)
(-0.0729502 0.238186 0)
(-0.0757848 0.244552 0)
(-0.0786329 0.250656 0)
(-0.0814785 0.256386 0)
(-0.0843039 0.261629 0)
(-0.0870907 0.266265 0)
(-0.08982 0.270179 0)
(-0.0924727 0.273259 0)
(-0.0950309 0.275405 0)
(-0.0974784 0.276526 0)
(-0.0998015 0.276553 0)
(-0.10199 0.275436 0)
(-0.104038 0.273148 0)
(-0.105945 0.269691 0)
(-0.107715 0.265092 0)
(-0.10936 0.259405 0)
(-0.110895 0.252706 0)
(-0.112342 0.245091 0)
(-0.113727 0.236671 0)
(-0.115077 0.227561 0)
(-0.116425 0.217875 0)
(-0.117799 0.207721 0)
(-0.119227 0.197187 0)
(-0.120732 0.186344 0)
(-0.122333 0.175236 0)
(-0.124039 0.163881 0)
(-0.125854 0.152273 0)
(-0.127771 0.140384 0)
(-0.129779 0.128169 0)
(-0.131856 0.115577 0)
(-1.33785e-06 0.00272522 0)
(-9.26289e-06 0.00804608 0)
(-2.80052e-05 0.0132778 0)
(-5.77422e-05 0.0184169 0)
(-9.8851e-05 0.0234599 0)
(-0.000152119 0.0284033 0)
(-0.000218411 0.0332438 0)
(-0.000298578 0.0379782 0)
(-0.000393482 0.0426033 0)
(-0.000503995 0.0471161 0)
(-0.000631004 0.0515139 0)
(-0.000775399 0.0557939 0)
(-0.000938072 0.0599538 0)
(-0.00111991 0.0639916 0)
(-0.0013218 0.0679052 0)
(-0.00154459 0.0716932 0)
(-0.00178916 0.0753544 0)
(-0.00205631 0.0788878 0)
(-0.00234687 0.0822931 0)
(-0.00266161 0.0855701 0)
(-0.00300128 0.0887193 0)
(-0.00336659 0.0917413 0)
(-0.00375822 0.0946376 0)
(-0.00417682 0.09741 0)
(-0.00462299 0.100061 0)
(-0.0050973 0.102592 0)
(-0.00560028 0.105008 0)
(-0.00613244 0.107313 0)
(-0.00669423 0.10951 0)
(-0.0072861 0.111605 0)
(-0.00790846 0.113603 0)
(-0.0085617 0.115511 0)
(-0.00924621 0.117335 0)
(-0.00996237 0.119082 0)
(-0.0107106 0.120761 0)
(-0.0114912 0.122379 0)
(-0.0123046 0.123946 0)
(-0.0131514 0.125472 0)
(-0.0140319 0.126966 0)
(-0.0149467 0.128441 0)
(-0.0158966 0.129907 0)
(-0.016882 0.131378 0)
(-0.0179039 0.132865 0)
(-0.0189631 0.134384 0)
(-0.0200607 0.135949 0)
(-0.0211977 0.137575 0)
(-0.0223754 0.13928 0)
(-0.0235951 0.141079 0)
(-0.0248585 0.142992 0)
(-0.0261671 0.145036 0)
(-0.0275228 0.147232 0)
(-0.0289273 0.149599 0)
(-0.0303828 0.152158 0)
(-0.0318911 0.154929 0)
(-0.0334546 0.157931 0)
(-0.0350751 0.161185 0)
(-0.0367547 0.164708 0)
(-0.0384953 0.168516 0)
(-0.0402986 0.172622 0)
(-0.042166 0.177037 0)
(-0.0440984 0.181767 0)
(-0.0460964 0.18681 0)
(-0.0481597 0.192161 0)
(-0.0502876 0.197807 0)
(-0.0524781 0.203723 0)
(-0.0547284 0.20988 0)
(-0.0570345 0.216233 0)
(-0.0593912 0.222731 0)
(-0.0617916 0.229308 0)
(-0.0642276 0.23589 0)
(-0.0666896 0.242389 0)
(-0.0691664 0.248709 0)
(-0.0716456 0.254746 0)
(-0.0741133 0.260387 0)
(-0.0765551 0.265517 0)
(-0.0789556 0.270019 0)
(-0.0812996 0.273777 0)
(-0.0835723 0.276682 0)
(-0.0857599 0.278637 0)
(-0.0878505 0.279555 0)
(-0.0898348 0.279372 0)
(-0.0917068 0.278042 0)
(-0.0934643 0.275547 0)
(-0.0951097 0.271893 0)
(-0.09665 0.267114 0)
(-0.0980974 0.261269 0)
(-0.0994683 0.25444 0)
(-0.100784 0.246727 0)
(-0.102067 0.238242 0)
(-0.103344 0.229101 0)
(-0.104641 0.219418 0)
(-0.105983 0.209294 0)
(-0.107393 0.198816 0)
(-0.108888 0.188045 0)
(-0.110483 0.177019 0)
(-0.112183 0.165748 0)
(-0.113987 0.154218 0)
(-0.115889 0.142393 0)
(-0.117874 0.130224 0)
(-0.119922 0.117652 0)
(-9.70513e-07 0.00274435 0)
(-6.91426e-06 0.00810528 0)
(-2.11984e-05 0.0133792 0)
(-4.41586e-05 0.0185627 0)
(-7.62954e-05 0.0236523 0)
(-0.000118426 0.0286445 0)
(-0.000171434 0.033536 0)
(-0.000236203 0.0383234 0)
(-0.000313633 0.0430035 0)
(-0.000404639 0.0475733 0)
(-0.000510151 0.0520299 0)
(-0.000631111 0.0563705 0)
(-0.000768461 0.0605926 0)
(-0.000923143 0.0646939 0)
(-0.0010961 0.0686725 0)
(-0.00128825 0.0725265 0)
(-0.00150051 0.0762547 0)
(-0.00173377 0.0798559 0)
(-0.0019889 0.0833295 0)
(-0.00226675 0.0866753 0)
(-0.00256812 0.0898934 0)
(-0.00289379 0.0929844 0)
(-0.0032445 0.0959495 0)
(-0.00362094 0.0987903 0)
(-0.00402377 0.101509 0)
(-0.00445361 0.104108 0)
(-0.00491102 0.10659 0)
(-0.00539654 0.10896 0)
(-0.00591066 0.111222 0)
(-0.00645382 0.11338 0)
(-0.00702646 0.11544 0)
(-0.00762896 0.117408 0)
(-0.00826167 0.119291 0)
(-0.00892496 0.121096 0)
(-0.00961914 0.122831 0)
(-0.0103446 0.124505 0)
(-0.0111015 0.126126 0)
(-0.0118904 0.127704 0)
(-0.0127116 0.12925 0)
(-0.0135655 0.130775 0)
(-0.0144525 0.132292 0)
(-0.0153731 0.133811 0)
(-0.0163279 0.135348 0)
(-0.0173175 0.136915 0)
(-0.0183427 0.138528 0)
(-0.0194042 0.140203 0)
(-0.0205029 0.141957 0)
(-0.0216398 0.143806 0)
(-0.0228159 0.145769 0)
(-0.0240324 0.147865 0)
(-0.0252905 0.150113 0)
(-0.0265915 0.152533 0)
(-0.0279367 0.155146 0)
(-0.0293275 0.157972 0)
(-0.0307653 0.161031 0)
(-0.0322512 0.164341 0)
(-0.0337864 0.167921 0)
(-0.0353721 0.171786 0)
(-0.037009 0.175949 0)
(-0.0386976 0.180419 0)
(-0.040438 0.185201 0)
(-0.04223 0.190295 0)
(-0.0440726 0.195692 0)
(-0.0459644 0.201378 0)
(-0.0479031 0.207328 0)
(-0.0498854 0.213511 0)
(-0.0519074 0.219881 0)
(-0.053964 0.226384 0)
(-0.0560489 0.232954 0)
(-0.0581549 0.239514 0)
(-0.0602736 0.245976 0)
(-0.0623955 0.252243 0)
(-0.0645103 0.258209 0)
(-0.0666068 0.263761 0)
(-0.0686733 0.268785 0)
(-0.0706979 0.273164 0)
(-0.0726691 0.276784 0)
(-0.074576 0.279538 0)
(-0.0764089 0.28133 0)
(-0.07816 0.282079 0)
(-0.079824 0.281724 0)
(-0.0813983 0.280224 0)
(-0.0828841 0.277566 0)
(-0.0842861 0.273761 0)
(-0.0856131 0.268848 0)
(-0.0868777 0.262891 0)
(-0.088096 0.255976 0)
(-0.0892872 0.248204 0)
(-0.0904726 0.239688 0)
(-0.0916742 0.230544 0)
(-0.0929141 0.220884 0)
(-0.0942128 0.210807 0)
(-0.0955878 0.200392 0)
(-0.0970526 0.189697 0)
(-0.0986157 0.178752 0)
(-0.10028 0.16756 0)
(-0.102043 0.1561 0)
(-0.103895 0.144332 0)
(-0.105823 0.132201 0)
(-0.107808 0.119645 0)
(-6.10406e-07 0.00275768 0)
(-4.60159e-06 0.00814753 0)
(-1.44849e-05 0.0134529 0)
(-3.07495e-05 0.0186704 0)
(-5.40127e-05 0.0237966 0)
(-8.5115e-05 0.028828 0)
(-0.000124954 0.0337611 0)
(-0.00017444 0.0385926 0)
(-0.000234504 0.0433194 0)
(-0.000306098 0.0479381 0)
(-0.000390192 0.0524458 0)
(-0.000487768 0.0568398 0)
(-0.000599816 0.0611172 0)
(-0.000727327 0.0652757 0)
(-0.00087129 0.0693131 0)
(-0.00103269 0.0732275 0)
(-0.00121248 0.0770174 0)
(-0.00141164 0.0806814 0)
(-0.00163107 0.0842189 0)
(-0.00187168 0.0876292 0)
(-0.00213433 0.0909124 0)
(-0.00241987 0.0940688 0)
(-0.00272908 0.0970995 0)
(-0.00306271 0.100006 0)
(-0.00342147 0.102789 0)
(-0.00380601 0.105453 0)
(-0.00421695 0.108 0)
(-0.00465484 0.110433 0)
(-0.0051202 0.112757 0)
(-0.0056135 0.114976 0)
(-0.00613516 0.117097 0)
(-0.00668556 0.119124 0)
(-0.00726505 0.121064 0)
(-0.00787393 0.122925 0)
(-0.00851249 0.124715 0)
(-0.009181 0.126442 0)
(-0.0098797 0.128114 0)
(-0.0106088 0.129743 0)
(-0.0113687 0.131338 0)
(-0.0121594 0.132912 0)
(-0.0129814 0.134474 0)
(-0.0138349 0.13604 0)
(-0.0147202 0.137621 0)
(-0.0156378 0.139232 0)
(-0.0165879 0.140889 0)
(-0.0175712 0.142607 0)
(-0.018588 0.144403 0)
(-0.019639 0.146295 0)
(-0.0207247 0.1483 0)
(-0.0218459 0.150438 0)
(-0.0230031 0.152728 0)
(-0.0241971 0.155191 0)
(-0.0254286 0.157847 0)
(-0.0266981 0.160715 0)
(-0.0280064 0.163816 0)
(-0.0293539 0.167168 0)
(-0.030741 0.170788 0)
(-0.0321679 0.174693 0)
(-0.0336345 0.178894 0)
(-0.0351407 0.183401 0)
(-0.0366856 0.188216 0)
(-0.0382683 0.193339 0)
(-0.0398873 0.198762 0)
(-0.0415404 0.204468 0)
(-0.0432251 0.210432 0)
(-0.0449379 0.216621 0)
(-0.046675 0.222989 0)
(-0.0484315 0.22948 0)
(-0.050202 0.236028 0)
(-0.05198 0.242554 0)
(-0.0537586 0.24897 0)
(-0.0555302 0.255178 0)
(-0.0572866 0.261072 0)
(-0.0590191 0.26654 0)
(-0.0607192 0.271466 0)
(-0.0623783 0.275736 0)
(-0.0639884 0.279236 0)
(-0.0655423 0.281862 0)
(-0.0670344 0.28352 0)
(-0.0684606 0.284134 0)
(-0.069819 0.283644 0)
(-0.0711105 0.282015 0)
(-0.0723388 0.279236 0)
(-0.0735104 0.275324 0)
(-0.0746353 0.27032 0)
(-0.0757259 0.264291 0)
(-0.0767977 0.257326 0)
(-0.0778675 0.249528 0)
(-0.0789537 0.24101 0)
(-0.0800746 0.231886 0)
(-0.0812479 0.222265 0)
(-0.0824893 0.212244 0)
(-0.0838117 0.201897 0)
(-0.0852241 0.191277 0)
(-0.0867315 0.180408 0)
(-0.0883338 0.169288 0)
(-0.0900266 0.157891 0)
(-0.0918007 0.146172 0)
(-0.0936431 0.134073 0)
(-0.0955373 0.121529 0)
(-2.59027e-07 0.00276549 0)
(-2.34123e-06 0.00817365 0)
(-7.91739e-06 0.0135002 0)
(-1.76216e-05 0.0187418 0)
(-3.21797e-05 0.0238949 0)
(-5.24499e-05 0.0289561 0)
(-7.93382e-05 0.033922 0)
(-0.000113775 0.0387892 0)
(-0.000156717 0.0435543 0)
(-0.000209145 0.0482141 0)
(-0.000272063 0.0527655 0)
(-0.000346488 0.0572056 0)
(-0.000433448 0.0615316 0)
(-0.000533979 0.0657408 0)
(-0.000649114 0.0698311 0)
(-0.000779883 0.0738002 0)
(-0.000927303 0.0776465 0)
(-0.00109238 0.0813684 0)
(-0.00127609 0.084965 0)
(-0.00147939 0.0884356 0)
(-0.00170319 0.0917799 0)
(-0.0019484 0.0949981 0)
(-0.00221584 0.0980909 0)
(-0.00250632 0.101059 0)
(-0.00282058 0.103906 0)
(-0.00315934 0.106631 0)
(-0.00352322 0.10924 0)
(-0.00391283 0.111734 0)
(-0.0043287 0.114118 0)
(-0.00477132 0.116397 0)
(-0.00524109 0.118575 0)
(-0.00573841 0.12066 0)
(-0.0062636 0.122656 0)
(-0.00681693 0.124571 0)
(-0.00739864 0.126413 0)
(-0.00800893 0.128191 0)
(-0.00864796 0.129914 0)
(-0.00931588 0.13159 0)
(-0.0100128 0.133232 0)
(-0.0107388 0.13485 0)
(-0.0114941 0.136457 0)
(-0.0122787 0.138064 0)
(-0.0130926 0.139686 0)
(-0.0139361 0.141337 0)
(-0.0148092 0.143032 0)
(-0.0157121 0.144788 0)
(-0.0166449 0.14662 0)
(-0.0176078 0.148547 0)
(-0.0186009 0.150586 0)
(-0.0196244 0.152758 0)
(-0.0206783 0.155081 0)
(-0.0217629 0.157576 0)
(-0.0228781 0.160262 0)
(-0.0240239 0.16316 0)
(-0.0252003 0.16629 0)
(-0.026407 0.169669 0)
(-0.0276435 0.173315 0)
(-0.0289094 0.177244 0)
(-0.0302037 0.181466 0)
(-0.0315255 0.18599 0)
(-0.0328733 0.19082 0)
(-0.0342454 0.195954 0)
(-0.0356397 0.201383 0)
(-0.0370536 0.207089 0)
(-0.0384843 0.213049 0)
(-0.0399283 0.219226 0)
(-0.0413817 0.225575 0)
(-0.0428403 0.232039 0)
(-0.0442991 0.238552 0)
(-0.0457529 0.245034 0)
(-0.0471963 0.251398 0)
(-0.0486233 0.257543 0)
(-0.0500281 0.263366 0)
(-0.0514046 0.268753 0)
(-0.0527471 0.273592 0)
(-0.0540504 0.277766 0)
(-0.0553099 0.281166 0)
(-0.0565222 0.283688 0)
(-0.0576851 0.285242 0)
(-0.0587981 0.285752 0)
(-0.0598627 0.285163 0)
(-0.0608824 0.283443 0)
(-0.061863 0.280582 0)
(-0.0628128 0.276602 0)
(-0.0637421 0.271545 0)
(-0.0646632 0.265482 0)
(-0.0655898 0.2585 0)
(-0.0665368 0.250704 0)
(-0.0675191 0.242206 0)
(-0.0685514 0.233119 0)
(-0.0696467 0.223549 0)
(-0.0708163 0.21359 0)
(-0.0720686 0.203312 0)
(-0.0734089 0.192763 0)
(-0.0748387 0.181964 0)
(-0.0763561 0.170909 0)
(-0.0779553 0.159567 0)
(-0.0796275 0.14789 0)
(-0.081361 0.135818 0)
(-0.083142 0.123285 0)
(8.1416e-08 0.0027681 0)
(-1.49615e-07 0.00818453 0)
(-1.54409e-06 0.0135225 0)
(-4.87072e-06 0.0187787 0)
(-1.09559e-05 0.0239496 0)
(-2.06697e-05 0.0290319 0)
(-3.49206e-05 0.034022 0)
(-5.46524e-05 0.0389165 0)
(-8.08409e-05 0.043712 0)
(-0.00011449 0.0484053 0)
(-0.000156629 0.0529932 0)
(-0.000208303 0.0574725 0)
(-0.000270574 0.0618404 0)
(-0.000344512 0.0660941 0)
(-0.00043119 0.0702312 0)
(-0.000531677 0.0742494 0)
(-0.000647037 0.0781467 0)
(-0.000778316 0.0819216 0)
(-0.000926543 0.0855727 0)
(-0.00109272 0.0890991 0)
(-0.00127782 0.0925005 0)
(-0.00148277 0.0957766 0)
(-0.00170846 0.0989281 0)
(-0.00195574 0.101956 0)
(-0.00222541 0.104861 0)
(-0.00251819 0.107646 0)
(-0.00283477 0.110314 0)
(-0.00317577 0.112867 0)
(-0.00354175 0.115309 0)
(-0.0039332 0.117645 0)
(-0.00435054 0.11988 0)
(-0.00479416 0.122019 0)
(-0.00526435 0.124069 0)
(-0.00576135 0.126036 0)
(-0.00628536 0.127929 0)
(-0.00683652 0.129756 0)
(-0.0074149 0.131526 0)
(-0.00802055 0.133248 0)
(-0.00865346 0.134934 0)
(-0.0093136 0.136594 0)
(-0.0100009 0.138241 0)
(-0.0107152 0.139887 0)
(-0.0114565 0.141545 0)
(-0.0122246 0.143231 0)
(-0.0130193 0.14496 0)
(-0.0138404 0.146747 0)
(-0.0146876 0.148609 0)
(-0.0155609 0.150565 0)
(-0.0164598 0.152631 0)
(-0.017384 0.154828 0)
(-0.0183331 0.157175 0)
(-0.0193068 0.159691 0)
(-0.0203043 0.162398 0)
(-0.021325 0.165314 0)
(-0.0223682 0.168459 0)
(-0.0234329 0.171852 0)
(-0.0245179 0.175509 0)
(-0.025622 0.179445 0)
(-0.0267434 0.183672 0)
(-0.0278805 0.188197 0)
(-0.0290312 0.193024 0)
(-0.0301931 0.198151 0)
(-0.0313635 0.203568 0)
(-0.0325396 0.209258 0)
(-0.0337181 0.215195 0)
(-0.0348956 0.221344 0)
(-0.0360685 0.227659 0)
(-0.0372327 0.234083 0)
(-0.0383843 0.24055 0)
(-0.0395192 0.246979 0)
(-0.0406332 0.253284 0)
(-0.0417224 0.259365 0)
(-0.0427829 0.265118 0)
(-0.0438115 0.270431 0)
(-0.0448051 0.275191 0)
(-0.0457618 0.279285 0)
(-0.0466802 0.282604 0)
(-0.0475604 0.285046 0)
(-0.0484037 0.286523 0)
(-0.0492127 0.286961 0)
(-0.0499919 0.286306 0)
(-0.0507473 0.284529 0)
(-0.0514866 0.281624 0)
(-0.0522192 0.277611 0)
(-0.0529557 0.272536 0)
(-0.0537077 0.266469 0)
(-0.0544874 0.259499 0)
(-0.0553071 0.251729 0)
(-0.0561786 0.243271 0)
(-0.0571125 0.234235 0)
(-0.0581177 0.224725 0)
(-0.0592013 0.214831 0)
(-0.0603675 0.204621 0)
(-0.061618 0.19414 0)
(-0.0629518 0.183404 0)
(-0.0643651 0.172404 0)
(-0.0658515 0.161109 0)
(-0.067403 0.149469 0)
(-0.0690097 0.13742 0)
(-0.0706606 0.124898 0)
(4.06605e-07 0.00276585 0)
(1.95616e-06 0.00818115 0)
(4.59169e-06 0.0135214 0)
(7.41638e-06 0.0187833 0)
(9.51355e-06 0.0239634 0)
(1.00078e-05 0.0290583 0)
(7.99422e-06 0.0340644 0)
(2.52192e-06 0.0389784 0)
(-7.39757e-06 0.0437968 0)
(-2.27839e-05 0.0485163 0)
(-4.46835e-05 0.0531335 0)
(-7.41651e-05 0.0576453 0)
(-0.000112315 0.0620487 0)
(-0.000160231 0.0663407 0)
(-0.000219017 0.0705187 0)
(-0.000289778 0.0745804 0)
(-0.000373612 0.0785235 0)
(-0.000471608 0.0823463 0)
(-0.000584833 0.0860472 0)
(-0.000714333 0.0896252 0)
(-0.000861119 0.0930794 0)
(-0.00102617 0.0964097 0)
(-0.00121042 0.0996163 0)
(-0.00141475 0.1027 0)
(-0.00163999 0.105661 0)
(-0.00188693 0.108503 0)
(-0.00215627 0.111227 0)
(-0.00244865 0.113836 0)
(-0.00276466 0.116334 0)
(-0.0031048 0.118725 0)
(-0.0034695 0.121013 0)
(-0.00385913 0.123205 0)
(-0.00427398 0.125307 0)
(-0.00471425 0.127324 0)
(-0.00518009 0.129266 0)
(-0.00567158 0.13114 0)
(-0.00618873 0.132955 0)
(-0.00673146 0.13472 0)
(-0.00729967 0.136447 0)
(-0.00789318 0.138146 0)
(-0.00851175 0.13983 0)
(-0.00915508 0.141511 0)
(-0.00982284 0.143202 0)
(-0.0105146 0.144919 0)
(-0.01123 0.146676 0)
(-0.0119684 0.148489 0)
(-0.0127293 0.150376 0)
(-0.013512 0.152353 0)
(-0.0143159 0.154439 0)
(-0.0151402 0.156653 0)
(-0.0159838 0.159015 0)
(-0.0168459 0.161544 0)
(-0.0177252 0.16426 0)
(-0.0186205 0.167182 0)
(-0.0195303 0.170331 0)
(-0.020453 0.173724 0)
(-0.0213867 0.177378 0)
(-0.0223293 0.181308 0)
(-0.0232787 0.185524 0)
(-0.0242322 0.190035 0)
(-0.0251872 0.194843 0)
(-0.0261408 0.199946 0)
(-0.0270897 0.205334 0)
(-0.0280308 0.210991 0)
(-0.0289606 0.21689 0)
(-0.0298756 0.222996 0)
(-0.0307724 0.229263 0)
(-0.0316475 0.235635 0)
(-0.0324977 0.242045 0)
(-0.0333199 0.248415 0)
(-0.0341114 0.254656 0)
(-0.0348701 0.260671 0)
(-0.0355942 0.266356 0)
(-0.0362829 0.271601 0)
(-0.036936 0.276294 0)
(-0.0375544 0.280322 0)
(-0.0381401 0.283578 0)
(-0.0386963 0.285962 0)
(-0.0392275 0.287387 0)
(-0.0397393 0.287781 0)
(-0.0402389 0.287092 0)
(-0.0407346 0.285291 0)
(-0.0412358 0.282374 0)
(-0.0417526 0.278361 0)
(-0.0422959 0.2733 0)
(-0.0428764 0.267258 0)
(-0.0435048 0.260325 0)
(-0.0441907 0.252602 0)
(-0.0449427 0.2442 0)
(-0.0457678 0.235225 0)
(-0.046671 0.225781 0)
(-0.0476552 0.215954 0)
(-0.0487209 0.205811 0)
(-0.0498667 0.195391 0)
(-0.0510891 0.184712 0)
(-0.052383 0.173762 0)
(-0.0537419 0.162507 0)
(-0.0551586 0.150898 0)
(-0.0566252 0.138871 0)
(-0.0581339 0.12636 0)
(7.16625e-07 0.00275909 0)
(3.96542e-06 0.00816453 0)
(1.04516e-05 0.0134985 0)
(1.91623e-05 0.0187578 0)
(2.90999e-05 0.0239389 0)
(3.93896e-05 0.0290385 0)
(4.91354e-05 0.0340531 0)
(5.7386e-05 0.0389791 0)
(6.31469e-05 0.0438132 0)
(6.53901e-05 0.0485518 0)
(6.3058e-05 0.0531917 0)
(5.50676e-05 0.0577295 0)
(4.03147e-05 0.062162 0)
(1.768e-05 0.0664864 0)
(-1.39626e-05 0.0706997 0)
(-5.57444e-05 0.0747993 0)
(-0.000108796 0.0787831 0)
(-0.000174237 0.0826488 0)
(-0.000253169 0.0863948 0)
(-0.000346673 0.0900198 0)
(-0.000455798 0.0935228 0)
(-0.00058156 0.0969033 0)
(-0.00072493 0.100161 0)
(-0.00088683 0.103297 0)
(-0.00106813 0.106312 0)
(-0.00126963 0.109207 0)
(-0.00149208 0.111984 0)
(-0.00173615 0.114647 0)
(-0.00200243 0.117198 0)
(-0.00229144 0.119641 0)
(-0.00260361 0.121981 0)
(-0.00293932 0.124224 0)
(-0.00329882 0.126375 0)
(-0.0036823 0.12844 0)
(-0.00408986 0.130428 0)
(-0.00452152 0.132347 0)
(-0.00497722 0.134204 0)
(-0.00545679 0.13601 0)
(-0.00596001 0.137776 0)
(-0.00648657 0.139511 0)
(-0.00703606 0.141229 0)
(-0.00760802 0.142941 0)
(-0.00820189 0.144662 0)
(-0.00881703 0.146405 0)
(-0.00945272 0.148186 0)
(-0.0101081 0.15002 0)
(-0.0107824 0.151925 0)
(-0.0114744 0.153918 0)
(-0.0121831 0.156017 0)
(-0.0129073 0.15824 0)
(-0.0136455 0.160608 0)
(-0.0143962 0.16314 0)
(-0.0151577 0.165856 0)
(-0.015928 0.168775 0)
(-0.0167052 0.171916 0)
(-0.0174868 0.175298 0)
(-0.0182704 0.178936 0)
(-0.0190533 0.182845 0)
(-0.0198325 0.187036 0)
(-0.0206048 0.191518 0)
(-0.021367 0.196292 0)
(-0.0221154 0.201356 0)
(-0.0228466 0.2067 0)
(-0.0235569 0.212309 0)
(-0.0242428 0.218155 0)
(-0.0249006 0.224204 0)
(-0.0255272 0.230411 0)
(-0.0261195 0.23672 0)
(-0.026675 0.243065 0)
(-0.0271918 0.249367 0)
(-0.0276684 0.25554 0)
(-0.0281044 0.261489 0)
(-0.0285002 0.267108 0)
(-0.0288571 0.272291 0)
(-0.0291777 0.276925 0)
(-0.0294656 0.280901 0)
(-0.0297259 0.284111 0)
(-0.0299647 0.286458 0)
(-0.0301894 0.287855 0)
(-0.0304088 0.288232 0)
(-0.0306324 0.287537 0)
(-0.0308705 0.285742 0)
(-0.0311341 0.282843 0)
(-0.031434 0.278861 0)
(-0.0317812 0.27384 0)
(-0.0321855 0.267849 0)
(-0.032656 0.260975 0)
(-0.0332001 0.253318 0)
(-0.0338233 0.244985 0)
(-0.034529 0.236082 0)
(-0.0353186 0.22671 0)
(-0.0361911 0.216951 0)
(-0.0371439 0.206871 0)
(-0.0381726 0.196509 0)
(-0.0392715 0.18588 0)
(-0.0404345 0.174973 0)
(-0.0416552 0.163753 0)
(-0.0429272 0.152171 0)
(-0.044245 0.140164 0)
(-0.0456036 0.127667 0)
(1.00908e-06 0.0027482 0)
(5.86595e-06 0.00813575 0)
(1.60023e-05 0.0134556 0)
(3.03004e-05 0.0187046 0)
(4.76912e-05 0.0238792 0)
(6.73065e-05 0.0289762 0)
(8.82648e-05 0.0339919 0)
(0.00010962 0.038923 0)
(0.00013038 0.0437659 0)
(0.000149513 0.0485171 0)
(0.00016596 0.0531731 0)
(0.000178629 0.0577307 0)
(0.000186406 0.0621864 0)
(0.000188161 0.0665373 0)
(0.000182747 0.0707802 0)
(0.000169015 0.0749126 0)
(0.000145813 0.0789318 0)
(0.000111998 0.0828356 0)
(6.64392e-05 0.0866221 0)
(8.02702e-06 0.0902897 0)
(-6.43198e-05 0.0938373 0)
(-0.000151648 0.097264 0)
(-0.00025496 0.10057 0)
(-0.000375212 0.103754 0)
(-0.000513302 0.106818 0)
(-0.000670066 0.109764 0)
(-0.000846271 0.112592 0)
(-0.00104261 0.115305 0)
(-0.0012597 0.117906 0)
(-0.00149806 0.1204 0)
(-0.00175814 0.122789 0)
(-0.0020403 0.12508 0)
(-0.00234478 0.127278 0)
(-0.00267174 0.129389 0)
(-0.00302125 0.131422 0)
(-0.00339327 0.133382 0)
(-0.00378767 0.13528 0)
(-0.0042042 0.137124 0)
(-0.00464252 0.138925 0)
(-0.0051022 0.140694 0)
(-0.00558269 0.142443 0)
(-0.00608334 0.144183 0)
(-0.00660339 0.145929 0)
(-0.00714199 0.147695 0)
(-0.00769813 0.149495 0)
(-0.00827073 0.151346 0)
(-0.00885855 0.153264 0)
(-0.00946022 0.155266 0)
(-0.0100742 0.157371 0)
(-0.0106989 0.159597 0)
(-0.0113323 0.161964 0)
(-0.0119725 0.164491 0)
(-0.0126172 0.167197 0)
(-0.0132639 0.170102 0)
(-0.01391 0.173225 0)
(-0.0145525 0.176584 0)
(-0.0151883 0.180194 0)
(-0.0158139 0.18407 0)
(-0.0164259 0.188224 0)
(-0.0170205 0.192662 0)
(-0.0175936 0.197388 0)
(-0.0181414 0.202399 0)
(-0.0186597 0.207686 0)
(-0.0191446 0.213232 0)
(-0.0195924 0.219012 0)
(-0.0199994 0.224992 0)
(-0.0203626 0.231127 0)
(-0.0206795 0.237363 0)
(-0.0209481 0.243633 0)
(-0.0211674 0.249862 0)
(-0.0213374 0.255964 0)
(-0.0214591 0.261844 0)
(-0.0215348 0.267401 0)
(-0.0215679 0.272526 0)
(-0.0215636 0.277111 0)
(-0.0215282 0.281046 0)
(-0.0214694 0.284226 0)
(-0.0213963 0.286555 0)
(-0.0213191 0.287946 0)
(-0.0212491 0.288329 0)
(-0.0211983 0.287654 0)
(-0.0211789 0.285893 0)
(-0.0212032 0.283039 0)
(-0.021283 0.279113 0)
(-0.0214291 0.274158 0)
(-0.0216508 0.268241 0)
(-0.0219557 0.261447 0)
(-0.0223489 0.253872 0)
(-0.0228332 0.245621 0)
(-0.0234089 0.236799 0)
(-0.0240739 0.227501 0)
(-0.024824 0.217812 0)
(-0.0256532 0.207794 0)
(-0.0265547 0.197486 0)
(-0.0275211 0.186903 0)
(-0.028545 0.176033 0)
(-0.0296202 0.164844 0)
(-0.0307415 0.153286 0)
(-0.0319053 0.141299 0)
(-0.0331096 0.128819 0)
(1.28245e-06 0.00273356 0)
(7.6482e-06 0.00809588 0)
(2.12158e-05 0.0133944 0)
(4.07736e-05 0.018626 0)
(6.51916e-05 0.0237872 0)
(9.36134e-05 0.0288747 0)
(0.000125177 0.033885 0)
(0.000158949 0.0388146 0)
(0.000193944 0.0436599 0)
(0.000229136 0.0484174 0)
(0.000263467 0.0530835 0)
(0.000295847 0.0576549 0)
(0.000325161 0.0621281 0)
(0.000350269 0.0664999 0)
(0.00037002 0.0707671 0)
(0.00038325 0.074927 0)
(0.000388793 0.0789766 0)
(0.000385489 0.0829137 0)
(0.000372188 0.0867361 0)
(0.000347756 0.090442 0)
(0.00031109 0.0940299 0)
(0.000261116 0.0974988 0)
(0.000196805 0.100848 0)
(0.000117175 0.104078 0)
(2.13017e-05 0.107189 0)
(-9.16764e-05 0.110181 0)
(-0.000222549 0.113056 0)
(-0.00037203 0.115817 0)
(-0.000540746 0.118467 0)
(-0.00072924 0.121007 0)
(-0.000937954 0.123444 0)
(-0.00116724 0.125781 0)
(-0.00141733 0.128023 0)
(-0.00168837 0.130178 0)
(-0.00198038 0.132252 0)
(-0.00229328 0.134252 0)
(-0.00262686 0.136188 0)
(-0.00298081 0.138068 0)
(-0.00335468 0.139902 0)
(-0.00374793 0.141702 0)
(-0.00415985 0.143478 0)
(-0.00458964 0.145243 0)
(-0.00503636 0.147011 0)
(-0.00549891 0.148795 0)
(-0.00597609 0.150611 0)
(-0.0064665 0.152473 0)
(-0.00696862 0.154399 0)
(-0.00748073 0.156405 0)
(-0.00800096 0.15851 0)
(-0.0085272 0.160733 0)
(-0.00905717 0.163091 0)
(-0.00958835 0.165605 0)
(-0.010118 0.168293 0)
(-0.0106431 0.171175 0)
(-0.0111604 0.17427 0)
(-0.0116664 0.177596 0)
(-0.0121573 0.181167 0)
(-0.0126292 0.184999 0)
(-0.0130779 0.189103 0)
(-0.0134989 0.193486 0)
(-0.0138879 0.198151 0)
(-0.0142402 0.203096 0)
(-0.0145515 0.208312 0)
(-0.0148175 0.213783 0)
(-0.015034 0.219485 0)
(-0.0151976 0.225384 0)
(-0.0153053 0.231437 0)
(-0.0153549 0.237589 0)
(-0.015345 0.243778 0)
(-0.0152756 0.249927 0)
(-0.0151477 0.255954 0)
(-0.0149637 0.261765 0)
(-0.0147277 0.267259 0)
(-0.0144452 0.272332 0)
(-0.0141235 0.276875 0)
(-0.0137714 0.28078 0)
(-0.0133992 0.283944 0)
(-0.0130188 0.28627 0)
(-0.0126429 0.287674 0)
(-0.0122852 0.288086 0)
(-0.0119601 0.287454 0)
(-0.0116817 0.28575 0)
(-0.0114636 0.282965 0)
(-0.0113184 0.27912 0)
(-0.011257 0.274254 0)
(-0.0112883 0.268433 0)
(-0.0114186 0.261736 0)
(-0.0116511 0.254258 0)
(-0.0119862 0.246101 0)
(-0.0124214 0.237367 0)
(-0.0129516 0.228151 0)
(-0.0135694 0.218533 0)
(-0.0142662 0.208575 0)
(-0.0150327 0.198319 0)
(-0.0158597 0.187777 0)
(-0.0167393 0.17694 0)
(-0.017665 0.165779 0)
(-0.0186326 0.154244 0)
(-0.0196404 0.142278 0)
(-0.0206892 0.129818 0)
(1.53576e-06 0.00271554 0)
(9.3047e-06 0.00804604 0)
(2.6069e-05 0.0133167 0)
(5.05348e-05 0.0185244 0)
(8.1521e-05 0.0236659 0)
(0.000118188 0.0287377 0)
(0.0001597 0.0337364 0)
(0.00020514 0.0386584 0)
(0.000253534 0.0435002 0)
(0.000303872 0.0482581 0)
(0.000355103 0.0529287 0)
(0.000406145 0.0575083 0)
(0.000455887 0.0619935 0)
(0.000503192 0.066381 0)
(0.000546907 0.0706673 0)
(0.000585864 0.0748496 0)
(0.000618891 0.0789249 0)
(0.000644817 0.0828906 0)
(0.000662479 0.0867443 0)
(0.00067073 0.0904841 0)
(0.000668448 0.0941082 0)
(0.00065454 0.0976155 0)
(0.000627957 0.101005 0)
(0.000587697 0.104276 0)
(0.000532812 0.10743 0)
(0.000462422 0.110466 0)
(0.000375718 0.113386 0)
(0.00027197 0.116192 0)
(0.000150535 0.118886 0)
(1.08661e-05 0.121471 0)
(-0.000147486 0.123952 0)
(-0.000324863 0.126332 0)
(-0.000521496 0.128617 0)
(-0.0007375 0.130813 0)
(-0.000972868 0.132926 0)
(-0.00122747 0.134964 0)
(-0.00150104 0.136935 0)
(-0.00179319 0.138848 0)
(-0.00210339 0.140713 0)
(-0.00243097 0.14254 0)
(-0.00277511 0.144341 0)
(-0.00313485 0.146129 0)
(-0.00350907 0.147915 0)
(-0.00389649 0.149714 0)
(-0.00429564 0.15154 0)
(-0.00470492 0.15341 0)
(-0.00512248 0.155339 0)
(-0.00554631 0.157345 0)
(-0.00597418 0.159444 0)
(-0.00640361 0.161656 0)
(-0.00683191 0.163999 0)
(-0.00725611 0.166493 0)
(-0.00767299 0.169156 0)
(-0.00807904 0.172007 0)
(-0.00847049 0.175065 0)
(-0.00884327 0.178348 0)
(-0.00919306 0.18187 0)
(-0.00951529 0.185648 0)
(-0.00980519 0.18969 0)
(-0.0100578 0.194007 0)
(-0.0102682 0.198599 0)
(-0.0104313 0.203466 0)
(-0.0105422 0.2086 0)
(-0.0105962 0.213984 0)
(-0.0105893 0.219597 0)
(-0.0105176 0.225404 0)
(-0.0103783 0.231364 0)
(-0.0101695 0.237425 0)
(-0.00989031 0.243524 0)
(-0.00954134 0.249588 0)
(-0.00912466 0.255536 0)
(-0.00864405 0.261275 0)
(-0.00810504 0.266709 0)
(-0.00751503 0.271732 0)
(-0.00688329 0.276239 0)
(-0.00622091 0.280123 0)
(-0.00554065 0.283282 0)
(-0.00485673 0.285621 0)
(-0.00418449 0.287055 0)
(-0.00354004 0.287513 0)
(-0.00293972 0.286945 0)
(-0.00239952 0.285319 0)
(-0.00193453 0.282626 0)
(-0.00155822 0.278883 0)
(-0.00128187 0.274127 0)
(-0.00111401 0.268419 0)
(-0.00105993 0.261837 0)
(-0.00112147 0.254471 0)
(-0.00129695 0.24642 0)
(-0.00158138 0.237783 0)
(-0.00196695 0.228652 0)
(-0.00244373 0.219108 0)
(-0.00300049 0.209212 0)
(-0.00362579 0.199005 0)
(-0.00430892 0.188503 0)
(-0.00504094 0.177698 0)
(-0.00581541 0.166562 0)
(-0.00662893 0.155049 0)
(-0.00748144 0.143105 0)
(-0.008376 0.13067 0)
(1.76802e-06 0.00269453 0)
(1.0829e-05 0.00798732 0)
(3.0543e-05 0.0132243 0)
(5.95455e-05 0.0184024 0)
(9.66142e-05 0.0235184 0)
(0.000140932 0.0285688 0)
(0.000191691 0.0335502 0)
(0.000247998 0.0384591 0)
(0.000308898 0.0432919 0)
(0.000373399 0.048045 0)
(0.000440466 0.0527146 0)
(0.000509032 0.0572972 0)
(0.000577997 0.0617893 0)
(0.000646234 0.0661873 0)
(0.000712594 0.0704879 0)
(0.000775915 0.0746878 0)
(0.000835024 0.078784 0)
(0.000888749 0.0827738 0)
(0.000935921 0.0866545 0)
(0.000975385 0.0904239 0)
(0.00100601 0.0940802 0)
(0.00102669 0.0976217 0)
(0.00103636 0.101048 0)
(0.00103401 0.104357 0)
(0.00101867 0.10755 0)
(0.000989447 0.110626 0)
(0.000945515 0.113588 0)
(0.000886132 0.116435 0)
(0.000810645 0.119171 0)
(0.000718499 0.121799 0)
(0.000609244 0.124321 0)
(0.000482542 0.126742 0)
(0.000338171 0.129066 0)
(0.000176037 0.131301 0)
(-3.82305e-06 0.133451 0)
(-0.000201238 0.135524 0)
(-0.000415894 0.137528 0)
(-0.000647331 0.139472 0)
(-0.000894934 0.141365 0)
(-0.00115793 0.143217 0)
(-0.0014354 0.14504 0)
(-0.00172621 0.146846 0)
(-0.00202911 0.148648 0)
(-0.00234261 0.150458 0)
(-0.00266506 0.152292 0)
(-0.00299459 0.154165 0)
(-0.00332911 0.156093 0)
(-0.00366631 0.158093 0)
(-0.00400364 0.160182 0)
(-0.00433827 0.162378 0)
(-0.00466712 0.1647 0)
(-0.00498682 0.167167 0)
(-0.0052937 0.169797 0)
(-0.00558378 0.17261 0)
(-0.0058528 0.175623 0)
(-0.00609617 0.178854 0)
(-0.00630904 0.182319 0)
(-0.00648629 0.186032 0)
(-0.00662261 0.190004 0)
(-0.00671253 0.194243 0)
(-0.00675052 0.198753 0)
(-0.00673108 0.203531 0)
(-0.00664889 0.208572 0)
(-0.00649896 0.213859 0)
(-0.0062768 0.219371 0)
(-0.00597862 0.225076 0)
(-0.00560154 0.230935 0)
(-0.00514383 0.236895 0)
(-0.00460498 0.242897 0)
(-0.00398617 0.248871 0)
(-0.00329041 0.254735 0)
(-0.00252255 0.260401 0)
(-0.00168946 0.265773 0)
(-0.000800161 0.270749 0)
(0.000134257 0.275225 0)
(0.00110062 0.279095 0)
(0.00208396 0.28226 0)
(0.0030678 0.284623 0)
(0.00403447 0.2861 0)
(0.00496561 0.286622 0)
(0.00584281 0.286135 0)
(0.00664824 0.284606 0)
(0.00736535 0.282024 0)