/*--------------------------------*- C++ -*----------------------------------*\
| =========                 |                                                 |
| \\      /  F ield         | OpenFOAM: The Open Source CFD Toolbox           |
|  \\    /   O peration     | Version:  2406                                  |
|   \\  /    A nd           | Website:  www.openfoam.com                      |
|    \\/     M anipulation  |                                                 |
\*---------------------------------------------------------------------------*/
FoamFile
{
    version     2.0;
    format      ascii;
    arch        "LSB;label=32;scalar=64";
    class       volScalarField;
    location    "299.98849999922726";
    object      p;
}
// * * * * * * * * * * * * * * * * * * * * * * * * * * * * * * * * * * * * * //

dimensions      [0 2 -2 0 0 0 0];

internalField   nonuniform List<scalar> 
40000
(
-1.89048e-09
3.78444e-05
6.44568e-05
8.02784e-05
8.63207e-05
8.10431e-05
6.22289e-05
2.77219e-05
-2.45687e-05
-9.66868e-05
-0.000190594
-0.00030814
-0.000451058
-0.000620982
-0.00081947
-0.00104804
-0.00130822
-0.00160153
-0.00192957
-0.00229396
-0.00269637
-0.00313848
-0.00362196
-0.0041484
-0.0047193
-0.00533598
-0.00599955
-0.00671086
-0.00747047
-0.00827859
-0.00913508
-0.0100394
-0.0109906
-0.0119875
-0.0130284
-0.0141113
-0.0152339
-0.0163937
-0.017588
-0.0188139
-0.0200685
-0.0213488
-0.0226525
-0.0239759
-0.025317
-0.0266735
-0.0280431
-0.0294242
-0.0308151
-0.0322147
-0.0336219
-0.0350359
-0.0364563
-0.0378827
-0.0393146
-0.0407518
-0.0421942
-0.0436415
-0.0450935
-0.0465496
-0.0480094
-0.0494724
-0.0509378
-0.0524048
-0.0538724
-0.0553395
-0.056805
-0.0582677
-0.0597261
-0.0611789
-0.0626246
-0.0640617
-0.0654886
-0.0669036
-0.0683052
-0.0696915
-0.0710607
-0.0724109
-0.0737402
-0.0750465
-0.0763277
-0.0775816
-0.0788058
-0.079998
-0.0811556
-0.0822759
-0.0833563
-0.084394
-0.0853859
-0.0863289
-0.08722
-0.0880557
-0.0888326
-0.0895472
-0.0901958
-0.0907746
-0.0912797
-0.091707
-0.0920524
-0.0923115
-0.000749568
-0.000707085
-0.000676146
-0.000656135
-0.000645781
-0.000646612
-0.000660903
-0.000690862
-0.000738637
-0.000806331
-0.000895967
-0.00100945
-0.00114853
-0.00131488
-0.00151003
-0.00173548
-0.00199267
-0.00228306
-0.00260817
-0.0029695
-0.00336865
-0.0038072
-0.00428674
-0.00480881
-0.00537485
-0.00598616
-0.00664383
-0.00734872
-0.00810139
-0.00890207
-0.00975064
-0.0106466
-0.0115891
-0.012577
-0.0136085
-0.0146818
-0.0157947
-0.0169447
-0.0181291
-0.0193451
-0.0205899
-0.0218605
-0.0231541
-0.0244681
-0.0257999
-0.0271472
-0.028508
-0.0298803
-0.0312628
-0.032654
-0.0340531
-0.0354593
-0.0368719
-0.0382907
-0.0397152
-0.0411452
-0.0425805
-0.0440208
-0.0454659
-0.0469153
-0.0483687
-0.0498253
-0.0512845
-0.0527454
-0.0542072
-0.0556687
-0.0571288
-0.0585863
-0.0600398
-0.0614879
-0.0629292
-0.0643621
-0.0657852
-0.0671967
-0.068595
-0.0699783
-0.0713449
-0.0726927
-0.0740199
-0.0753245
-0.0766042
-0.0778568
-0.0790801
-0.0802716
-0.0814288
-0.082549
-0.0836295
-0.0846674
-0.0856597
-0.0866034
-0.0874952
-0.0883318
-0.0891097
-0.0898254
-0.090475
-0.0910549
-0.091561
-0.0919893
-0.0923356
-0.0925955
-0.00132747
-0.00128101
-0.00124624
-0.00122238
-0.00120794
-0.00120445
-0.00121422
-0.00123952
-0.00128256
-0.00134552
-0.0014305
-0.00153947
-0.00167426
-0.00183655
-0.00202791
-0.0022498
-0.00250364
-0.00279084
-0.00311281
-0.00347098
-0.00386685
-0.00430191
-0.00477768
-0.00529563
-0.00585716
-0.00646353
-0.00711582
-0.00781489
-0.00856131
-0.00935535
-0.0101969
-0.0110856
-0.0120205
-0.0130005
-0.0140241
-0.0150893
-0.0161941
-0.017336
-0.0185123
-0.0197203
-0.0209573
-0.0222202
-0.0235063
-0.024813
-0.0261377
-0.0274781
-0.0288321
-0.0301978
-0.0315739
-0.0329589
-0.0343519
-0.0357521
-0.0371589
-0.0385718
-0.0399906
-0.0414149
-0.0428445
-0.0442793
-0.0457188
-0.0471628
-0.0486107
-0.0500621
-0.0515161
-0.052972
-0.0544288
-0.0558856
-0.0573412
-0.0587943
-0.0602436
-0.0616878
-0.0631254
-0.0645549
-0.0659748
-0.0673834
-0.068779
-0.07016
-0.0715244
-0.0728705
-0.0741962
-0.0754995
-0.0767782
-0.0780302
-0.079253
-0.0804443
-0.0816016
-0.082722
-0.083803
-0.0848416
-0.0858348
-0.0867795
-0.0876724
-0.0885102
-0.0892894
-0.0900064
-0.0906574
-0.0912386
-0.0917459
-0.0921753
-0.0925226
-0.0927833
-0.0017453
-0.00169552
-0.00165741
-0.00163007
-0.00161181
-0.00160415
-0.00160944
-0.00163001
-0.00166813
-0.00172606
-0.00180599
-0.00190998
-0.00203995
-0.00219763
-0.00238465
-0.00260246
-0.00285249
-0.00313608
-0.00345457
-0.00380935
-0.00420179
-0.00463331
-0.00510536
-0.00561933
-0.00617656
-0.00677829
-0.0074256
-0.00811932
-0.00886006
-0.00964811
-0.0104834
-0.0113656
-0.0122939
-0.0132672
-0.014284
-0.0153425
-0.0164405
-0.0175758
-0.0187457
-0.0199474
-0.0211783
-0.0224354
-0.0237159
-0.0250173
-0.0263368
-0.0276723
-0.0290216
-0.0303828
-0.0317544
-0.0331352
-0.0345239
-0.0359199
-0.0373225
-0.0387312
-0.0401458
-0.0415659
-0.0429913
-0.0444217
-0.045857
-0.0472967
-0.0487403
-0.0501874
-0.0516372
-0.053089
-0.0545418
-0.0559947
-0.0574465
-0.058896
-0.0603419
-0.0617829
-0.0632175
-0.0646442
-0.0660616
-0.0674679
-0.0688615
-0.0702407
-0.0716037
-0.0729485
-0.0742732
-0.0755758
-0.0768541
-0.0781059
-0.0793288
-0.0805204
-0.0816781
-0.0827994
-0.0838813
-0.084921
-0.0859155
-0.0868616
-0.087756
-0.0885954
-0.0893763
-0.0900949
-0.0907475
-0.0913302
-0.091839
-0.0922697
-0.092618
-0.0928796
-0.00201607
-0.0019636
-0.00192265
-0.0018922
-0.0018704
-0.00185875
-0.00185964
-0.00187543
-0.00190847
-0.00196109
-0.00203558
-0.00213411
-0.00225869
-0.00241116
-0.00259319
-0.0028063
-0.0030519
-0.00333133
-0.00364588
-0.00399685
-0.00438556
-0.00481333
-0.00528153
-0.00579148
-0.00634448
-0.00694172
-0.00758426
-0.00827294
-0.00900839
-0.00979093
-0.0106206
-0.0114969
-0.0124194
-0.0133868
-0.0143977
-0.0154505
-0.016543
-0.0176729
-0.0188377
-0.0200346
-0.021261
-0.0225139
-0.0237905
-0.0250882
-0.0264044
-0.0277367
-0.0290831
-0.0304415
-0.0318105
-0.0331886
-0.0345748
-0.0359682
-0.0373682
-0.0387743
-0.0401861
-0.0416033
-0.0430257
-0.0444531
-0.0458852
-0.0473217
-0.0487621
-0.0502059
-0.0516524
-0.0531009
-0.0545505
-0.0560003
-0.0574491
-0.0588957
-0.0603389
-0.0617774
-0.0632097
-0.0646343
-0.0660498
-0.0674544
-0.0688466
-0.0702246
-0.0715866
-0.0729308
-0.0742551
-0.0755575
-0.0768359
-0.078088
-0.0793115
-0.0805039
-0.0816627
-0.0827851
-0.0838685
-0.0849098
-0.085906
-0.0868539
-0.0877503
-0.0885917
-0.0893745
-0.0900951
-0.0907497
-0.0913342
-0.0918446
-0.0922768
-0.0926264
-0.092889
-0.0021537
-0.00209917
-0.00205587
-0.00202269
-0.00199765
-0.00198223
-0.00197884
-0.00198985
-0.00201768
-0.00206473
-0.0021334
-0.00222597
-0.00234458
-0.00249116
-0.00266749
-0.00287515
-0.00311558
-0.00339014
-0.00370009
-0.00404668
-0.00443116
-0.00485478
-0.00531881
-0.00582453
-0.00637316
-0.00696585
-0.00760365
-0.0082874
-0.00901773
-0.00979501
-0.0106193
-0.0114903
-0.0124073
-0.0133694
-0.0143753
-0.0154231
-0.0165109
-0.0176364
-0.0187972
-0.0199905
-0.0212136
-0.0224636
-0.0237377
-0.0250332
-0.0263475
-0.0276783
-0.0290232
-0.0303805
-0.0317483
-0.0331254
-0.0345106
-0.0359029
-0.0373017
-0.0387064
-0.0401167
-0.0415323
-0.042953
-0.0443785
-0.0458085
-0.0472427
-0.0486808
-0.0501222
-0.0515663
-0.0530123
-0.0544595
-0.0559069
-0.0573534
-0.0587979
-0.060239
-0.0616756
-0.0631062
-0.0645293
-0.0659434
-0.067347
-0.0687384
-0.0701158
-0.0714774
-0.0728214
-0.0741458
-0.0754486
-0.0767276
-0.0779806
-0.0792052
-0.0803989
-0.0815592
-0.0826834
-0.0837687
-0.084812
-0.0858104
-0.0867607
-0.0876594
-0.0885032
-0.0892884
-0.0900114
-0.0906682
-0.0912548
-0.0917672
-0.0922011
-0.0925521
-0.0928159
-0.0021726
-0.00211658
-0.00207142
-0.00203591
-0.00200796
-0.00198902
-0.00198149
-0.00198777
-0.0020103
-0.00205157
-0.00211407
-0.0022002
-0.00231222
-0.00245221
-0.00262204
-0.0028234
-0.00305781
-0.00332664
-0.00363117
-0.00397261
-0.00435217
-0.00477102
-0.00523037
-0.00573141
-0.00627532
-0.00686319
-0.00749605
-0.00817474
-0.0088999
-0.00967193
-0.0104909
-0.0113567
-0.0122686
-0.0132257
-0.0142268
-0.0152702
-0.0163539
-0.0174758
-0.0186333
-0.0198238
-0.0210445
-0.0222926
-0.0235653
-0.0248599
-0.0261736
-0.027504
-0.0288489
-0.0302062
-0.0315743
-0.0329517
-0.0343371
-0.0357296
-0.0371284
-0.0385331
-0.0399431
-0.0413583
-0.0427782
-0.0442027
-0.0456316
-0.0470645
-0.0485011
-0.0499409
-0.0513833
-0.0528277
-0.0542732
-0.0557188
-0.0571637
-0.0586066
-0.0600463
-0.0614816
-0.0629111
-0.0643333
-0.0657467
-0.0671497
-0.0685407
-0.0699181
-0.0712799
-0.0726243
-0.0739494
-0.0752531
-0.0765332
-0.0777876
-0.0790138
-0.0802094
-0.0813717
-0.0824982
-0.0835858
-0.0846318
-0.0856328
-0.0865858
-0.0874874
-0.088334
-0.0891221
-0.0898477
-0.0905071
-0.0910962
-0.0916109
-0.0920467
-0.0923994
-0.0926644
-0.0020873
-0.00203037
-0.00198383
-0.00194637
-0.00191586
-0.00189368
-0.00188221
-0.00188384
-0.00190104
-0.00193636
-0.00199238
-0.00207161
-0.00217645
-0.00230911
-0.0024716
-0.00266575
-0.00289316
-0.00315527
-0.0034534
-0.00378874
-0.00416248
-0.00457574
-0.00502965
-0.00552536
-0.00606396
-0.00664652
-0.00727401
-0.00794727
-0.00866696
-0.00943351
-0.0102471
-0.0111075
-0.0120142
-0.0129664
-0.0139628
-0.0150019
-0.0160818
-0.0172003
-0.018355
-0.0195433
-0.0207623
-0.0220093
-0.0232814
-0.0245758
-0.0258898
-0.0272209
-0.0285668
-0.0299254
-0.0312948
-0.0326735
-0.0340603
-0.0354542
-0.0368542
-0.0382598
-0.0396706
-0.0410862
-0.0425064
-0.0439309
-0.0453595
-0.0467919
-0.0482278
-0.0496668
-0.0511082
-0.0525515
-0.0539959
-0.0554404
-0.0568842
-0.0583261
-0.059765
-0.0611995
-0.0626284
-0.0640501
-0.0654633
-0.0668664
-0.0682576
-0.0696354
-0.0709979
-0.0723432
-0.0736695
-0.0749746
-0.0762565
-0.0775127
-0.0787411
-0.0799391
-0.081104
-0.0822332
-0.0833238
-0.0843728
-0.085377
-0.0863333
-0.0872381
-0.0880881
-0.0888793
-0.0896082
-0.0902706
-0.0908625
-0.0913797
-0.0918179
-0.0921724
-0.0924389
-0.00191214
-0.00185484
-0.00180736
-0.00176837
-0.00173565
-0.00171053
-0.00169535
-0.00169247
-0.00170438
-0.00173365
-0.00178293
-0.00185486
-0.00195195
-0.00207656
-0.00223088
-0.00241684
-0.0026362
-0.00289049
-0.00318107
-0.0035092
-0.00387603
-0.00428266
-0.00473018
-0.00521966
-0.00575215
-0.00632864
-0.0069501
-0.00761733
-0.00833102
-0.0090916
-0.00989927
-0.0107539
-0.0116551
-0.0126021
-0.0135937
-0.0146284
-0.0157045
-0.0168197
-0.0179717
-0.0191579
-0.0203756
-0.0216219
-0.0228938
-0.0241887
-0.0255037
-0.0268362
-0.0281838
-0.0295444
-0.0309161
-0.0322971
-0.0336863
-0.0350823
-0.0364844
-0.037892
-0.0393044
-0.0407213
-0.0421426
-0.0435679
-0.0449969
-0.0464296
-0.0478655
-0.0493042
-0.0507452
-0.052188
-0.0536319
-0.0550759
-0.0565191
-0.0579605
-0.059399
-0.0608333
-0.062262
-0.0636839
-0.0650973
-0.0665008
-0.0678928
-0.0692715
-0.0706352
-0.071982
-0.0733099
-0.074617
-0.075901
-0.0771598
-0.0783908
-0.0795916
-0.0807597
-0.0818922
-0.0829862
-0.0840388
-0.0850468
-0.0860068
-0.0869154
-0.0877691
-0.0885641
-0.0892966
-0.0899624
-0.0905576
-0.0910777
-0.0915184
-0.0918751
-0.0921433
-0.00166101
-0.00160383
-0.00155587
-0.00151573
-0.00148117
-0.00145345
-0.00143483
-0.00142765
-0.00143435
-0.00145754
-0.00149992
-0.0015642
-0.00165304
-0.00176894
-0.00191423
-0.00209103
-0.00230124
-0.00254651
-0.00282831
-0.00314796
-0.00350662
-0.00390541
-0.00434536
-0.00482751
-0.00535283
-0.00592231
-0.00653682
-0.00719719
-0.00790407
-0.00865795
-0.00945904
-0.0103073
-0.0112024
-0.0121436
-0.0131299
-0.0141598
-0.0152317
-0.0163433
-0.0174925
-0.0186766
-0.0198929
-0.0211385
-0.0224105
-0.0237061
-0.0250224
-0.0263568
-0.0277067
-0.0290699
-0.0304444
-0.0318285
-0.0332207
-0.0346197
-0.0360247
-0.0374348
-0.0388496
-0.0402687
-0.0416917
-0.0431184
-0.0445486
-0.0459821
-0.0474185
-0.0488576
-0.0502988
-0.0517416
-0.0531854
-0.0546293
-0.0560724
-0.0575138
-0.0589523
-0.0603868
-0.0618158
-0.0632382
-0.0646523
-0.0660568
-0.0674499
-0.06883
-0.0701954
-0.0715441
-0.0728742
-0.0741838
-0.0754705
-0.0767322
-0.0779664
-0.0791707
-0.0803424
-0.0814787
-0.0825768
-0.0836335
-0.0846457
-0.08561
-0.086523
-0.087381
-0.0881802
-0.0889167
-0.0895864
-0.0901851
-0.0907086
-0.0911522
-0.0915113
-0.0917814
-0.00134713
-0.00129053
-0.0012425
-0.0012016
-0.00116557
-0.0011356
-0.00111385
-0.00110261
-0.00110427
-0.00112143
-0.00115682
-0.00121322
-0.00129339
-0.00139997
-0.00153547
-0.00170216
-0.00190211
-0.00213714
-0.00240884
-0.00271862
-0.00306773
-0.00345727
-0.0038883
-0.0043618
-0.00487872
-0.00543997
-0.00604642
-0.00669886
-0.00739792
-0.00814412
-0.00893772
-0.00977873
-0.0106669
-0.0116015
-0.0125817
-0.0136061
-0.0146731
-0.0157806
-0.0169264
-0.018108
-0.0193225
-0.0205673
-0.0218392
-0.0231355
-0.0244532
-0.0257896
-0.0271421
-0.0285083
-0.029886
-0.0312736
-0.0326693
-0.0340718
-0.0354802
-0.0368936
-0.0383114
-0.0397331
-0.0411585
-0.0425872
-0.0440191
-0.0454539
-0.0468915
-0.0483313
-0.0497731
-0.0512164
-0.0526605
-0.0541047
-0.0555481
-0.0569898
-0.0584288
-0.0598637
-0.0612935
-0.0627168
-0.064132
-0.0655378
-0.0669325
-0.0683145
-0.069682
-0.0710331
-0.0723659
-0.0736784
-0.0749683
-0.0762335
-0.0774714
-0.0786797
-0.0798556
-0.0809963
-0.0820989
-0.0831603
-0.0841773
-0.0851464
-0.0860643
-0.0869271
-0.087731
-0.088472
-0.0891461
-0.0897489
-0.090276
-0.0907229
-0.0910849
-0.0913571
-0.000982871
-0.000927273
-0.000879554
-0.000838268
-0.000801143
-0.000769284
-0.000744762
-0.000729755
-0.000726604
-0.00073787
-0.000766287
-0.000814675
-0.000885869
-0.000982644
-0.00110765
-0.00126335
-0.00145198
-0.00167555
-0.00193581
-0.00223429
-0.00257233
-0.00295111
-0.00337169
-0.00383505
-0.00434211
-0.00489376
-0.00549081
-0.00613402
-0.00682404
-0.00756137
-0.00834631
-0.00917894
-0.010059
-0.0109861
-0.0119591
-0.0129771
-0.0140382
-0.0151407
-0.0162824
-0.0174607
-0.0186729
-0.0199162
-0.0211877
-0.0224843
-0.0238032
-0.0251415
-0.0264965
-0.0278657
-0.0292469
-0.0306381
-0.0320377
-0.0334441
-0.0348563
-0.0362734
-0.0376946
-0.0391195
-0.0405477
-0.0419789
-0.0434129
-0.0448495
-0.0462885
-0.0477295
-0.0491723
-0.0506164
-0.0520611
-0.0535059
-0.05495
-0.0563923
-0.057832
-0.0592679
-0.0606987
-0.0621231
-0.0635399
-0.0649474
-0.0663441
-0.0677283
-0.0690983
-0.0704523
-0.0717882
-0.0731041
-0.0743978
-0.0756669
-0.0769092
-0.0781219
-0.0793026
-0.0804482
-0.081556
-0.0826226
-0.083645
-0.0846195
-0.0855428
-0.0864109
-0.0872201
-0.0879662
-0.0886451
-0.0892525
-0.0897837
-0.0902343
-0.0905994
-0.0908741
-0.000579638
-0.000525408
-0.000478363
-0.000437043
-0.000399192
-0.000365823
-0.000338892
-0.000320467
-0.000312804
-0.000318401
-0.000339962
-0.000380319
-0.000442364
-0.000528969
-0.000642922
-0.000786856
-0.000963199
-0.00117415
-0.00142163
-0.00170736
-0.00203278
-0.00239918
-0.00280767
-0.00325926
-0.00375485
-0.00429532
-0.00488145
-0.00551397
-0.0061935
-0.00692057
-0.0076955
-0.0085184
-0.00938914
-0.0103073
-0.011272
-0.0122822
-0.0133364
-0.0144327
-0.0155691
-0.0167431
-0.0179521
-0.0191932
-0.0204634
-0.0217598
-0.0230794
-0.0244191
-0.0257763
-0.0271484
-0.0285329
-0.0299278
-0.0313313
-0.0327418
-0.034158
-0.035579
-0.037004
-0.0384323
-0.0398637
-0.0412977
-0.0427341
-0.0441728
-0.0456136
-0.0470562
-0.0485002
-0.0499454
-0.0513911
-0.0528368
-0.0542817
-0.0557249
-0.0571656
-0.0586026
-0.0600347
-0.0614607
-0.0628793
-0.0642888
-0.0656878
-0.0670747
-0.0684477
-0.0698049
-0.0711444
-0.0724642
-0.0737621
-0.0750358
-0.0762828
-0.0775007
-0.0786866
-0.0798378
-0.0809512
-0.0820237
-0.083052
-0.0840326
-0.0849618
-0.0858359
-0.0866509
-0.0874026
-0.0880869
-0.0886992
-0.0892351
-0.0896897
-0.0900583
-0.0903359
-0.000147789
-9.5252e-05
-4.92009e-05
-8.17849e-06
3.0041e-05
6.45412e-05
9.3495e-05
0.000114955
0.000126775
0.000126542
0.000111614
7.91769e-05
2.63172e-05
-4.9909e-05
-0.000152402
-0.000283949
-0.000447161
-0.00064443
-0.000877897
-0.00114944
-0.00146069
-0.00181306
-0.00220775
-0.00264582
-0.00312821
-0.00365577
-0.00422929
-0.00484946
-0.00551691
-0.00623214
-0.00699551
-0.00780717
-0.00866705
-0.00957476
-0.0105296
-0.0115307
-0.0125764
-0.0136653
-0.0147951
-0.0159636
-0.0171681
-0.0184058
-0.0196738
-0.020969
-0.0222884
-0.023629
-0.0249878
-0.0263623
-0.0277498
-0.0291482
-0.0305555
-0.03197
-0.0333903
-0.0348153
-0.0362441
-0.0376761
-0.0391108
-0.0405478
-0.041987
-0.0434281
-0.0448709
-0.0463152
-0.0477607
-0.0492071
-0.050654
-0.0521008
-0.0535467
-0.0549911
-0.056433
-0.0578713
-0.059305
-0.0607328
-0.0621534
-0.0635653
-0.064967
-0.0663569
-0.0677332
-0.0690941
-0.0704377
-0.0717619
-0.0730645
-0.0743432
-0.0755955
-0.076819
-0.0780108
-0.0791681
-0.0802878
-0.0813668
-0.0824016
-0.0833888
-0.0843246
-0.0852052
-0.0860266
-0.0867845
-0.0874746
-0.0880925
-0.0886334
-0.0890926
-0.0894651
-0.0897459
0.000303431
0.000354
0.000398773
0.000439193
0.000477442
0.0005127
0.000543278
0.000567362
0.000582932
0.000587686
0.000579067
0.000554315
0.000510529
0.000444728
0.000353927
0.000235212
8.58012e-05
-9.6891e-05
-0.000315214
-0.000571256
-0.00086684
-0.00120354
-0.00158268
-0.00200544
-0.00247279
-0.00298562
-0.0035447
-0.00415075
-0.00480435
-0.00550602
-0.00625613
-0.00705486
-0.0079022
-0.00879786
-0.00974124
-0.0107314
-0.0117672
-0.0128469
-0.0139686
-0.01513
-0.0163285
-0.0175615
-0.018826
-0.0201188
-0.021437
-0.0227774
-0.0241371
-0.0255133
-0.0269032
-0.0283046
-0.0297153
-0.0311335
-0.0325577
-0.0339867
-0.0354194
-0.036855
-0.0382932
-0.0397334
-0.0411754
-0.042619
-0.0440639
-0.0455101
-0.0469573
-0.0484052
-0.0498534
-0.0513013
-0.0527485
-0.0541942
-0.0556374
-0.0570773
-0.0585128
-0.0599426
-0.0613655
-0.06278
-0.0641847
-0.0655779
-0.0669579
-0.0683229
-0.069671
-0.071
-0.0723077
-0.073592
-0.0748502
-0.0760799
-0.0772782
-0.0784422
-0.0795688
-0.0806548
-0.0816968
-0.0826912
-0.0836342
-0.084522
-0.0853503
-0.086115
-0.0868116
-0.0874355
-0.087982
-0.0884462
-0.088823
-0.0891074
0.000765884
0.000814261
0.00085751
0.000897053
0.000935015
0.000970671
0.00100247
0.00102875
0.00104763
0.00105693
0.00105421
0.00103679
0.00100182
0.000946321
0.000867259
0.00076162
0.000626479
0.000459069
0.000256835
1.74698e-05
-0.000261063
-0.000580529
-0.000942436
-0.00134807
-0.00179851
-0.00229471
-0.00283745
-0.00342746
-0.00406534
-0.0047516
-0.00548661
-0.0062706
-0.00710359
-0.00798537
-0.00891544
-0.009893
-0.0109169
-0.0119856
-0.0130974
-0.01425
-0.015441
-0.0166676
-0.017927
-0.019216
-0.0205316
-0.0218707
-0.0232301
-0.0246069
-0.0259985
-0.0274021
-0.0288157
-0.0302372
-0.031665
-0.0330976
-0.034534
-0.0359733
-0.0374148
-0.0388582
-0.040303
-0.0417492
-0.0431964
-0.0446446
-0.0460935
-0.0475429
-0.0489925
-0.0504418
-0.0518902
-0.0533373
-0.054782
-0.0562236
-0.057661
-0.059093
-0.0605184
-0.0619358
-0.0633438
-0.0647406
-0.0661247
-0.0674942
-0.0688471
-0.0701814
-0.0714949
-0.0727852
-0.0740499
-0.0752863
-0.0764916
-0.0776629
-0.078797
-0.0798908
-0.0809406
-0.0819428
-0.0828937
-0.0837892
-0.0846252
-0.0853972
-0.0861009
-0.0867314
-0.087284
-0.0877537
-0.0881353
-0.0884237
0.00123255
0.00127856
0.00132008
0.0013585
0.00139588
0.0014316
0.00146424
0.00149228
0.00151398
0.00152734
0.00153003
0.00151949
0.00149294
0.00144746
0.00137999
0.00128746
0.00116683
0.00101518
0.000829765
0.000608051
0.00034778
4.69683e-05
-0.000296094
-0.000682856
-0.00111454
-0.00159218
-0.00211663
-0.00268864
-0.00330883
-0.00397771
-0.00469568
-0.00546299
-0.0062797
-0.00714567
-0.0080605
-0.00902347
-0.0100336
-0.0110894
-0.0121893
-0.0133311
-0.0145126
-0.015731
-0.0169835
-0.0182671
-0.0195785
-0.0209147
-0.0222725
-0.0236488
-0.0250409
-0.0264459
-0.0278615
-0.0292857
-0.0307164
-0.0321523
-0.033592
-0.0350346
-0.0364794
-0.0379258
-0.0393735
-0.0408221
-0.0422716
-0.0437218
-0.0451724
-0.0466234
-0.0480744
-0.0495251
-0.0509749
-0.0524234
-0.0538697
-0.0553131
-0.0567526
-0.0581869
-0.0596151
-0.0610356
-0.0624471
-0.0638479
-0.0652364
-0.0666107
-0.0679689
-0.069309
-0.0706286
-0.0719255
-0.0731972
-0.0744409
-0.0756539
-0.0768331
-0.0779754
-0.0790775
-0.0801358
-0.0811466
-0.0821059
-0.0830099
-0.0838541
-0.0846341
-0.0853454
-0.0859832
-0.0865425
-0.0870182
-0.0874051
-0.0876979
0.00169746
0.00174097
0.0017806
0.0018177
0.00185424
0.00188969
0.00192279
0.00195216
0.00197622
0.00199311
0.00200066
0.00199645
0.00197783
0.00194192
0.00188571
0.00180611
0.0017
0.00156435
0.00139622
0.00119289
0.00095187
0.000670943
0.000348175
-1.80849e-05
-0.00042923
-0.00088642
-0.00139062
-0.00194263
-0.00254311
-0.0031926
-0.00389152
-0.00464013
-0.00543855
-0.00628669
-0.00718423
-0.00813056
-0.00912477
-0.0101656
-0.0112515
-0.0123805
-0.0135504
-0.0147585
-0.0160022
-0.0172783
-0.0185838
-0.0199154
-0.02127
-0.0226444
-0.0240356
-0.0254408
-0.0268574
-0.0282833
-0.0297163
-0.0311548
-0.0325973
-0.0340429
-0.0354906
-0.0369398
-0.03839
-0.0398411
-0.0412928
-0.0427448
-0.0441972
-0.0456497
-0.0471022
-0.0485542
-0.0500055
-0.0514555
-0.0529034
-0.0543487
-0.0557903
-0.0572272
-0.0586582
-0.060082
-0.0614972
-0.0629023
-0.0642955
-0.0656751
-0.067039
-0.0683853
-0.0697116
-0.0710156
-0.0722948
-0.0735465
-0.0747677
-0.0759555
-0.0771067
-0.0782178
-0.0792852
-0.0803052
-0.0812737
-0.0821868
-0.0830399
-0.0838286
-0.0845482
-0.0851938
-0.0857603
-0.0862426
-0.0866353
-0.086933
0.00215567
0.00219659
0.0022342
0.0022698
0.00230529
0.00234019
0.0023734
0.00240368
0.00242961
0.00244948
0.00246131
0.00246283
0.00245151
0.0024246
0.00237915
0.0023121
0.00222029
0.0021006
0.00194997
0.00176549
0.00154445
0.00128439
0.000983156
0.000638856
0.000249896
-0.000185057
-0.0006671
-0.00119713
-0.00177588
-0.00240394
-0.00308174
-0.00380958
-0.00458764
-0.00541586
-0.00629399
-0.00722154
-0.0081977
-0.00922136
-0.0102911
-0.011405
-0.012561
-0.0137567
-0.0149893
-0.0162559
-0.0175534
-0.0188785
-0.020228
-0.0215987
-0.0229875
-0.0243915
-0.0258079
-0.0272344
-0.0286686
-0.0301089
-0.0315536
-0.0330016
-0.0344517
-0.0359033
-0.0373559
-0.0388092
-0.0402628
-0.0417167
-0.0431707
-0.0446247
-0.0460785
-0.047532
-0.0489846
-0.0504361
-0.0518857
-0.0533329
-0.0547767
-0.0562162
-0.0576503
-0.0590776
-0.0604969
-0.0619065
-0.0633047
-0.0646899
-0.06606
-0.0674129
-0.0687464
-0.0700581
-0.0713454
-0.0726055
-0.0738357
-0.0750327
-0.0761934
-0.0773142
-0.0783914
-0.0794213
-0.0803998
-0.0813226
-0.0821854
-0.0829834
-0.0837119
-0.0843659
-0.0849403
-0.0854298
-0.0858288
-0.0861318
0.00260316
0.00264145
0.00267696
0.00271092
0.00274515
0.00277926
0.00281225
0.00284304
0.00287037
0.00289269
0.0029082
0.00291478
0.00291009
0.00289149
0.00285615
0.00280107
0.00272312
0.00261912
0.00248592
0.00232045
0.00211982
0.00188134
0.00160261
0.0012815
0.000916174
0.000505101
4.70073e-05
-0.000459143
-0.00101418
-0.00161875
-0.00227337
-0.00297836
-0.00373394
-0.00454011
-0.00539669
-0.00630327
-0.00725915
-0.00826335
-0.00931455
-0.0104111
-0.0115509
-0.0127318
-0.0139511
-0.0152058
-0.016493
-0.0178095
-0.0191519
-0.020517
-0.0219016
-0.0233027
-0.0247174
-0.0261431
-0.0275775
-0.0290185
-0.0304645
-0.0319141
-0.033366
-0.0348196
-0.0362741
-0.0377292
-0.0391846
-0.0406401
-0.0420956
-0.043551
-0.0450061
-0.0464608
-0.0479148
-0.0493678
-0.0508191
-0.0522683
-0.0537144
-0.0551566
-0.0565939
-0.0580249
-0.0594484
-0.0608628
-0.0622664
-0.0636576
-0.0650342
-0.0663942
-0.0677354
-0.0690553
-0.0703513
-0.0716206
-0.0728603
-0.0740673
-0.0752381
-0.0763693
-0.0774571
-0.0784977
-0.0794868
-0.0804201
-0.0812932
-0.0821012
-0.0828394
-0.0835025
-0.0840853
-0.0845825
-0.0849884
-0.0852973
0.00303677
0.00307241
0.00310576
0.00313799
0.00317081
0.00320389
0.00323638
0.00326733
0.00329561
0.00331986
0.00333842
0.00334939
0.00335058
0.00333953
0.00331354
0.00326971
0.00320497
0.00311614
0.00300002
0.00285344
0.00267334
0.00245684
0.00220129
0.00190431
0.00156383
0.00117806
0.000745545
0.000265057
-0.000264368
-0.000843488
-0.00147288
-0.00215294
-0.00288392
-0.0036659
-0.00449876
-0.00538215
-0.00631551
-0.00729795
-0.00832829
-0.00940501
-0.0105263
-0.0116898
-0.0128933
-0.0141338
-0.0154083
-0.0167137
-0.0180468
-0.0194041
-0.0207825
-0.0221789
-0.0235901
-0.0250135
-0.0264467
-0.0278872
-0.0293335
-0.0307837
-0.0322367
-0.0336916
-0.0351475
-0.036604
-0.0380608
-0.0395176
-0.0409743
-0.0424309
-0.0438872
-0.0453432
-0.0467985
-0.0482529
-0.0497059
-0.0511571
-0.0526056
-0.0540507
-0.0554913
-0.0569262
-0.0583541
-0.0597736
-0.0611829
-0.0625804
-0.063964
-0.0653317
-0.066681
-0.0680097
-0.069315
-0.0705941
-0.071844
-0.0730616
-0.0742433
-0.0753856
-0.0764848
-0.0775367
-0.0785371
-0.0794817
-0.0803659
-0.0811846
-0.0819331
-0.082606
-0.083198
-0.0837035
-0.0841168
-0.0844322
0.00345408
0.00348711
0.00351828
0.0035487
0.00357998
0.00361187
0.00364361
0.00367438
0.0037032
0.00372886
0.00374989
0.00376457
0.00377088
0.00376656
0.00374906
0.00371563
0.00366328
0.0035889
0.00348927
0.00336116
0.00320141
0.00300694
0.00277491
0.0025027
0.00218796
0.00182868
0.00142314
0.000969907
0.000467847
-8.39413e-05
-0.000686141
-0.00133924
-0.00204355
-0.00279922
-0.00360618
-0.00446418
-0.00537274
-0.00633109
-0.0073382
-0.00839267
-0.00949282
-0.0106366
-0.0118216
-0.0130453
-0.0143046
-0.0155965
-0.0169177
-0.018265
-0.019635
-0.0210245
-0.0224303
-0.0238497
-0.0252799
-0.0267186
-0.0281637
-0.0296136
-0.0310667
-0.0325221
-0.0339787
-0.0354361
-0.0368938
-0.0383516
-0.0398093
-0.0412669
-0.0427242
-0.0441812
-0.0456378
-0.0470936
-0.0485484
-0.0500016
-0.0514525
-0.0529005
-0.0543446
-0.0557836
-0.0572162
-0.058641
-0.0600565
-0.0614607
-0.0628517
-0.0642274
-0.0655855
-0.0669235
-0.0682387
-0.0695283
-0.0707891
-0.0720179
-0.0732113
-0.0743655
-0.0754767
-0.0765408
-0.0775534
-0.07851
-0.0794059
-0.0802362
-0.0809956
-0.081679
-0.0822807
-0.0827952
-0.0832166
-0.0835389
0.00385337
0.00388383
0.00391282
0.0039414
0.00397106
0.0040016
0.00403238
0.00406268
0.00409167
0.00411828
0.00414121
0.00415892
0.0041696
0.00417116
0.00416124
0.00413726
0.00409635
0.00403551
0.00395155
0.00384125
0.00370135
0.00352867
0.00332016
0.003073
0.00278459
0.00245265
0.0020752
0.00165059
0.00117745
0.000654713
8.15475e-05
-0.000542648
-0.00121827
-0.00194554
-0.00272448
-0.0035549
-0.00443641
-0.00536837
-0.00634985
-0.00737963
-0.00845614
-0.00957751
-0.0107415
-0.0119456
-0.0131871
-0.0144628
-0.0157697
-0.0171043
-0.0184635
-0.0198438
-0.0212421
-0.0226554
-0.0240808
-0.025516
-0.0269586
-0.0284068
-0.0298589
-0.0313138
-0.0327703
-0.0342279
-0.035686
-0.0371444
-0.0386027
-0.040061
-0.0415191
-0.0429771
-0.0444348
-0.045892
-0.0473484
-0.0488037
-0.0502572
-0.0517082
-0.0531559
-0.0545992
-0.0560368
-0.0574673
-0.0588891
-0.0603004
-0.0616993
-0.0630836
-0.064451
-0.065799
-0.0671247
-0.0684254
-0.0696978
-0.0709387
-0.0721444
-0.0733113
-0.0744354
-0.0755123
-0.0765378
-0.0775073
-0.0784157
-0.0792582
-0.0800294
-0.080724
-0.0813362
-0.0818603
-0.0822903
-0.0826202
0.00423348
0.00426144
0.00428829
0.00431502
0.00434299
0.00437208
0.00440171
0.00443131
0.00446013
0.00448726
0.00451156
0.00453168
0.00454597
0.00455256
0.0045493
0.00453375
0.00450325
0.0044549
0.00438563
0.00429222
0.00417141
0.00401994
0.00383463
0.00361245
0.00335059
0.00304651
0.00269796
0.00230304
0.00186013
0.00136795
0.000825494
0.000232013
-0.000413013
-0.00110989
-0.00185873
-0.00265943
-0.0035117
-0.00441498
-0.00536848
-0.00637111
-0.00742147
-0.00851783
-0.00965814
-0.01084
-0.0120609
-0.0133177
-0.0146074
-0.0159267
-0.0172724
-0.018641
-0.0200294
-0.0214344
-0.0228531
-0.0242829
-0.0257212
-0.0271662
-0.0286161
-0.0300693
-0.0315248
-0.0329818
-0.0344396
-0.0358979
-0.0373565
-0.0388151
-0.0402738
-0.0417326
-0.0431913
-0.0446498
-0.0461079
-0.0475653
-0.0490214
-0.0504757
-0.0519272
-0.0533749
-0.0548177
-0.0562542
-0.0576828
-0.0591017
-0.0605089
-0.0619024
-0.0632796
-0.0646381
-0.0659751
-0.0672875
-0.0685723
-0.069826
-0.0710449
-0.0722252
-0.0733629
-0.0744536
-0.0754928
-0.0764758
-0.0773976
-0.0782531
-0.0790369
-0.0797433
-0.0803667
-0.0809011
-0.0813404
-0.0816783
0.00459374
0.0046193
0.00464406
0.00466893
0.0046952
0.00472274
0.00475111
0.00477978
0.00480815
0.00483543
0.00486063
0.00488255
0.00489976
0.00491057
0.00491302
0.00490489
0.00488369
0.00484669
0.00479095
0.00471334
0.00461062
0.00447951
0.00431674
0.00411913
0.00388368
0.00360761
0.00328842
0.00292392
0.00251226
0.00205189
0.00154161
0.00098047
0.000367813
-0.000296794
-0.00101356
-0.00178248
-0.00260336
-0.00347574
-0.00439895
-0.00537202
-0.00639372
-0.00746248
-0.00857641
-0.00973332
-0.0109307
-0.0121657
-0.0134355
-0.0147367
-0.0160661
-0.0174204
-0.0187963
-0.0201906
-0.0216002
-0.0230225
-0.0244547
-0.0258948
-0.0273408
-0.0287911
-0.0302445
-0.0316999
-0.0331566
-0.0346143
-0.0360725
-0.0375312
-0.0389901
-0.0404495
-0.041909
-0.0433688
-0.0448286
-0.0462882
-0.047747
-0.0492046
-0.0506601
-0.0521126
-0.053561
-0.0550038
-0.0564395
-0.0578665
-0.0592825
-0.0606856
-0.0620733
-0.063443
-0.0647919
-0.0661168
-0.0674147
-0.0686819
-0.0699148
-0.0711094
-0.0722615
-0.0733667
-0.0744205
-0.0754179
-0.0763539
-0.0772232
-0.0780202
-0.0787393
-0.0793745
-0.0799199
-0.0803691
-0.0807158
0.00493388
0.00495715
0.00497989
0.00500295
0.00502749
0.00505346
0.00508045
0.00510804
0.00513572
0.00516281
0.00518848
0.00521167
0.00523114
0.00524538
0.00525264
0.00525091
0.00523789
0.00521105
0.0051676
0.00510455
0.00501873
0.00490688
0.0047657
0.00459193
0.00438239
0.00413412
0.00384437
0.00351068
0.00313094
0.00270334
0.00222641
0.00169902
0.00112031
0.000489703
-0.000193142
-0.000928333
-0.00171576
-0.00255509
-0.00344576
-0.00438693
-0.00537752
-0.00641611
-0.00750099
-0.00863014
-0.00980121
-0.0110116
-0.0122584
-0.0135385
-0.0148488
-0.0161859
-0.0175466
-0.0189275
-0.0203256
-0.0217381
-0.0231621
-0.0245954
-0.0260358
-0.0274817
-0.0289316
-0.0303843
-0.0318391
-0.0332953
-0.0347526
-0.0362108
-0.0376697
-0.0391293
-0.0405896
-0.0420506
-0.0435121
-0.0449739
-0.0464356
-0.0478967
-0.0493564
-0.050814
-0.0522682
-0.0537177
-0.0551611
-0.0565965
-0.0580219
-0.0594353
-0.060834
-0.0622156
-0.063577
-0.0649153
-0.066227
-0.0675085
-0.0687562
-0.0699658
-0.0711333
-0.0722539
-0.0733231
-0.0743357
-0.0752867
-0.0761705
-0.0769816
-0.0777141
-0.0783619
-0.0789189
-0.0793787
-0.0797347
0.00525399
0.00527509
0.00529589