/*--------------------------------*- C++ -*----------------------------------*\
| =========                 |                                                 |
| \\      /  F ield         | OpenFOAM: The Open Source CFD Toolbox           |
|  \\    /   O peration     | Version:  2406                                  |
|   \\  /    A nd           | Website:  www.openfoam.com                      |
|    \\/     M anipulation  |                                                 |
\*---------------------------------------------------------------------------*/
FoamFile
{
    version     2.0;
    format      ascii;
    arch        "LSB;label=32;scalar=64";
    class       volVectorField;
    location    "299.98849999922726";
    object      U;
}
// * * * * * * * * * * * * * * * * * * * * * * * * * * * * * * * * * * * * * //

dimensions      [0 1 -1 0 0 0 0];

internalField   nonuniform List<vector> 
40000
(
(3.91844e-05 0.0140744 0)
(0.000239936 0.0413688 0)
(0.000658811 0.0679632 0)
(0.00123745 0.0937561 0)
(0.00192907 0.118628 0)
(0.0026957 0.142453 0)
(0.00350023 0.165114 0)
(0.00430657 0.18651 0)
(0.0050818 0.206566 0)
(0.0057977 0.225243 0)
(0.00643169 0.242537 0)
(0.00696751 0.258482 0)
(0.00739544 0.273148 0)
(0.00771207 0.286632 0)
(0.0079197 0.299053 0)
(0.00802537 0.310541 0)
(0.00803959 0.321227 0)
(0.00797511 0.331235 0)
(0.00784554 0.340673 0)
(0.00766426 0.349632 0)
(0.00744354 0.358176 0)
(0.0071939 0.366346 0)
(0.00692383 0.374161 0)
(0.00663972 0.38162 0)
(0.00634604 0.388705 0)
(0.00604557 0.395386 0)
(0.00573981 0.401626 0)
(0.0054292 0.407382 0)
(0.00511356 0.41261 0)
(0.00479227 0.417269 0)
(0.00446445 0.421319 0)
(0.0041291 0.424727 0)
(0.00378522 0.427465 0)
(0.00343185 0.429514 0)
(0.00306811 0.43086 0)
(0.00269321 0.431501 0)
(0.00230649 0.431441 0)
(0.00190744 0.430695 0)
(0.00149567 0.429285 0)
(0.00107098 0.427242 0)
(0.000633545 0.424604 0)
(0.000183989 0.421415 0)
(-0.000279076 0.417728 0)
(-0.000755151 0.413594 0)
(-0.00124184 0.409073 0)
(-0.00173894 0.404221 0)
(-0.00224577 0.399096 0)
(-0.00276127 0.393752 0)
(-0.00328426 0.38824 0)
(-0.00381353 0.382605 0)
(-0.0043478 0.376888 0)
(-0.00488582 0.371119 0)
(-0.00542636 0.365325 0)
(-0.00596824 0.359522 0)
(-0.00651038 0.353723 0)
(-0.00705181 0.347931 0)
(-0.00759168 0.342145 0)
(-0.00812926 0.336361 0)
(-0.00866399 0.330571 0)
(-0.00919542 0.324763 0)
(-0.00972322 0.318926 0)
(-0.0102472 0.313049 0)
(-0.0107673 0.307119 0)
(-0.0112834 0.301127 0)
(-0.0117957 0.295063 0)
(-0.0123042 0.288921 0)
(-0.0128092 0.282695 0)
(-0.0133109 0.276381 0)
(-0.0138094 0.269976 0)
(-0.0143052 0.263478 0)
(-0.0147985 0.256886 0)
(-0.0152896 0.2502 0)
(-0.0157789 0.24342 0)
(-0.0162669 0.236545 0)
(-0.0167539 0.229574 0)
(-0.0172405 0.222509 0)
(-0.0177272 0.215347 0)
(-0.0182146 0.208088 0)
(-0.0187035 0.20073 0)
(-0.0191945 0.193273 0)
(-0.0196885 0.185715 0)
(-0.0201864 0.178054 0)
(-0.0206892 0.170287 0)
(-0.0211981 0.162414 0)
(-0.0217142 0.154431 0)
(-0.0222389 0.146337 0)
(-0.0227736 0.138129 0)
(-0.0233198 0.129804 0)
(-0.0238792 0.121361 0)
(-0.0244536 0.112796 0)
(-0.0250448 0.104107 0)
(-0.0256549 0.0952896 0)
(-0.0262858 0.0863414 0)
(-0.02694 0.0772587 0)
(-0.0276196 0.0680376 0)
(-0.0283271 0.0586739 0)
(-0.029065 0.0491633 0)
(-0.0298359 0.039501 0)
(-0.0306424 0.0296819 0)
(-0.0314872 0.0197003 0)
(4.25899e-05 0.0134406 0)
(0.000265105 0.0396712 0)
(0.000735525 0.0654014 0)
(0.00139451 0.0905321 0)
(0.00219514 0.114942 0)
(0.00309962 0.138499 0)
(0.00407025 0.161072 0)
(0.00506939 0.182541 0)
(0.00606167 0.20281 0)
(0.00701566 0.22181 0)
(0.00790499 0.239508 0)
(0.00870922 0.255909 0)
(0.00941434 0.271052 0)
(0.0100128 0.285008 0)
(0.0105032 0.297875 0)
(0.0108895 0.309765 0)
(0.0111797 0.3208 0)
(0.011385 0.331098 0)
(0.0115181 0.340768 0)
(0.0115921 0.349904 0)
(0.0116194 0.358578 0)
(0.011611 0.366839 0)
(0.011576 0.374716 0)
(0.0115212 0.382215 0)
(0.0114515 0.389327 0)
(0.0113698 0.396026 0)
(0.0112775 0.402281 0)
(0.0111747 0.408051 0)
(0.0110608 0.413296 0)
(0.0109345 0.417973 0)
(0.0107943 0.422046 0)
(0.0106386 0.425479 0)
(0.0104655 0.428245 0)
(0.0102736 0.430324 0)
(0.0100616 0.431703 0)
(0.0098281 0.432378 0)
(0.00957239 0.432353 0)
(0.00929378 0.431641 0)
(0.00899194 0.430264 0)
(0.00866686 0.428253 0)
(0.00831891 0.425645 0)
(0.00794889 0.422484 0)
(0.0075572 0.41882 0)
(0.00714506 0.414708 0)
(0.00671452 0.410204 0)
(0.0062671 0.405365 0)
(0.00580461 0.400249 0)
(0.00532908 0.394909 0)
(0.00484262 0.389398 0)
(0.00434736 0.383759 0)
(0.00384536 0.378034 0)
(0.0033386 0.372254 0)
(0.00282892 0.366445 0)
(0.00231797 0.360626 0)
(0.00180717 0.354808 0)
(0.00129774 0.348995 0)
(0.000790643 0.343188 0)
(0.000286597 0.337381 0)
(-0.00021386 0.331568 0)
(-0.000710409 0.325737 0)
(-0.00120293 0.319877 0)
(-0.00169139 0.313977 0)
(-0.0021759 0.308025 0)
(-0.00265663 0.302011 0)
(-0.0031338 0.295927 0)
(-0.00360767 0.289766 0)
(-0.00407854 0.283521 0)
(-0.00454667 0.277188 0)
(-0.00501237 0.270766 0)
(-0.00547592 0.264252 0)
(-0.00593762 0.257644 0)
(-0.0063978 0.250944 0)
(-0.00685678 0.244149 0)
(-0.00731495 0.237261 0)
(-0.0077727 0.230278 0)
(-0.00823053 0.223201 0)
(-0.00868895 0.216029 0)
(-0.00914859 0.208761 0)
(-0.00961013 0.201396 0)
(-0.0100743 0.193932 0)
(-0.0105421 0.186368 0)
(-0.0110143 0.178702 0)
(-0.0114921 0.170933 0)
(-0.0119766 0.163058 0)
(-0.0124692 0.155076 0)
(-0.0129712 0.146983 0)
(-0.0134841 0.138778 0)
(-0.0140096 0.130459 0)
(-0.0145494 0.122023 0)
(-0.0151055 0.113467 0)
(-0.0156798 0.104788 0)
(-0.0162744 0.0959829 0)
(-0.0168917 0.087049 0)
(-0.0175339 0.0779825 0)
(-0.0182036 0.0687795 0)
(-0.0189034 0.0594359 0)
(-0.0196359 0.0499473 0)
(-0.020404 0.0403089 0)
(-0.0212104 0.0305154 0)
(-0.0220582 0.0205613 0)
(4.53304e-05 0.0127616 0)
(0.000286138 0.0378301 0)
(0.000800766 0.0625904 0)
(0.00152983 0.0869476 0)
(0.00242711 0.110781 0)
(0.00345567 0.133956 0)
(0.00457796 0.156331 0)
(0.00575547 0.177774 0)
(0.00695109 0.198165 0)
(0.00813075 0.217415 0)
(0.00926472 0.235461 0)
(0.0103287 0.252278 0)
(0.0113044 0.267877 0)
(0.01218 0.282302 0)
(0.0129503 0.295625 0)
(0.0136155 0.30794 0)
(0.014181 0.319354 0)
(0.0146557 0.329979 0)
(0.0150511 0.33992 0)
(0.0153796 0.349273 0)
(0.0156536 0.358115 0)
(0.0158844 0.366504 0)
(0.0160817 0.374476 0)
(0.0162528 0.382047 0)
(0.0164032 0.389214 0)
(0.016536 0.395961 0)
(0.0166529 0.402259 0)
(0.0167537 0.408073 0)
(0.0168375 0.413363 0)
(0.0169025 0.41809 0)
(0.0169467 0.422216 0)
(0.0169676 0.425707 0)
(0.016963 0.428535 0)
(0.0169308 0.430678 0)
(0.0168691 0.432124 0)
(0.0167762 0.432866 0)
(0.016651 0.432908 0)
(0.0164928 0.432263 0)
(0.0163013 0.430951 0)
(0.0160764 0.429002 0)
(0.015819 0.426451 0)
(0.01553 0.423344 0)
(0.015211 0.419728 0)
(0.0148638 0.415658 0)
(0.0144909 0.411189 0)
(0.0140946 0.406379 0)
(0.0136779 0.401284 0)
(0.0132437 0.39596 0)
(0.0127949 0.390456 0)
(0.0123347 0.38482 0)
(0.0118658 0.379092 0)
(0.0113909 0.373304 0)
(0.0109126 0.367483 0)
(0.0104329 0.361648 0)
(0.00995373 0.35581 0)
(0.00947643 0.349977 0)
(0.00900216 0.344148 0)
(0.0085317 0.338319 0)
(0.00806552 0.332482 0)
(0.00760385 0.326628 0)
(0.00714668 0.320747 0)
(0.00669386 0.314825 0)
(0.0062451 0.308853 0)
(0.00580007 0.302819 0)
(0.00535838 0.296717 0)
(0.00491963 0.290538 0)
(0.00448345 0.284276 0)
(0.00404949 0.277928 0)
(0.00361741 0.27149 0)
(0.0031869 0.264962 0)
(0.00275767 0.258341 0)
(0.00232942 0.251627 0)
(0.00190183 0.24482 0)
(0.00147457 0.237921 0)
(0.00104723 0.230928 0)
(0.000619379 0.223841 0)
(0.000190577 0.21666 0)
(-0.000239957 0.209384 0)
(-0.00067292 0.202012 0)
(-0.00110893 0.194543 0)
(-0.00154896 0.186975 0)
(-0.00199404 0.179306 0)
(-0.00244529 0.171536 0)
(-0.00290394 0.163661 0)
(-0.00337136 0.15568 0)
(-0.00384903 0.147591 0)
(-0.00433857 0.139391 0)
(-0.00484171 0.131079 0)
(-0.00536032 0.122651 0)
(-0.00589641 0.114105 0)
(-0.00645212 0.105438 0)
(-0.00702972 0.0966478 0)
(-0.00763161 0.0877302 0)
(-0.00826032 0.078682 0)
(-0.00891852 0.0694993 0)
(-0.00960898 0.060178 0)
(-0.0103346 0.0507137 0)
(-0.0110984 0.0411015 0)
(-0.0119034 0.0313363 0)
(-0.0127527 0.0214122 0)
(4.74377e-05 0.0120487 0)
(0.000303168 0.0358775 0)
(0.000854792 0.0595797 0)
(0.00164375 0.0830668 0)
(0.00262522 0.106222 0)
(0.00376378 0.128909 0)
(0.00502269 0.150982 0)
(0.00636334 0.172297 0)
(0.00774754 0.192721 0)
(0.00913923 0.212141 0)
(0.0105058 0.230471 0)
(0.0118195 0.247658 0)
(0.0130579 0.263684 0)
(0.0142051 0.278565 0)
(0.0152515 0.292347 0)
(0.0161936 0.305103 0)
(0.0170335 0.316925 0)
(0.0177776 0.32791 0)
(0.0184355 0.33816 0)
(0.0190187 0.347769 0)
(0.0195391 0.356819 0)
(0.0200082 0.365373 0)
(0.0204361 0.373475 0)
(0.0208309 0.38115 0)
(0.0211986 0.388403 0)
(0.0215429 0.395226 0)
(0.0218655 0.401594 0)
(0.0221666 0.407479 0)
(0.0224449 0.412842 0)
(0.0226985 0.417646 0)
(0.0229245 0.421855 0)
(0.0231203 0.425433 0)
(0.0232828 0.428353 0)
(0.0234093 0.430592 0)
(0.0234974 0.432136 0)
(0.0235452 0.432977 0)
(0.0235511 0.433119 0)
(0.0235141 0.432571 0)
(0.0234339 0.431353 0)
(0.0233108 0.429494 0)
(0.0231455 0.427028 0)
(0.0229396 0.423998 0)
(0.022695 0.420453 0)
(0.0224143 0.416444 0)
(0.0221006 0.412028 0)
(0.0217571 0.407262 0)
(0.0213876 0.402202 0)
(0.0209958 0.396903 0)
(0.0205858 0.391417 0)
(0.0201613 0.38579 0)
(0.019726 0.380063 0)
(0.0192834 0.37427 0)
(0.0188364 0.368439 0)
(0.0183879 0.362589 0)
(0.01794 0.356733 0)
(0.0174945 0.35088 0)
(0.0170526 0.345028 0)
(0.0166152 0.339177 0)
(0.0161829 0.333317 0)
(0.0157557 0.327441 0)
(0.0153335 0.321538 0)
(0.0149161 0.315596 0)
(0.0145029 0.309604 0)
(0.0140936 0.303553 0)
(0.0136875 0.297434 0)
(0.0132841 0.291238 0)
(0.012883 0.284962 0)
(0.0124837 0.2786 0)
(0.0120858 0.272149 0)
(0.011689 0.265608 0)
(0.011293 0.258975 0)
(0.0108975 0.252251 0)
(0.0105023 0.245434 0)
(0.0101069 0.238524 0)
(0.00971102 0.231522 0)
(0.00931426 0.224427 0)
(0.00891612 0.217239 0)
(0.00851591 0.209957 0)
(0.00811292 0.20258 0)
(0.00770642 0.195106 0)
(0.00729544 0.187535 0)
(0.00687891 0.179865 0)
(0.00645566 0.172095 0)
(0.00602437 0.164221 0)
(0.00558362 0.156243 0)
(0.00513181 0.148159 0)
(0.00466726 0.139966 0)
(0.0041881 0.131662 0)
(0.00369234 0.123244 0)
(0.00317787 0.11471 0)
(0.00264239 0.106058 0)
(0.00208349 0.0972834 0)
(0.0014986 0.088384 0)
(0.000885035 0.0793561 0)
(0.00023996 0.0701958 0)
(-0.000439642 0.060899 0)
(-0.00115686 0.0514613 0)
(-0.00191487 0.0418778 0)
(-0.00271699 0.0321432 0)
(-0.00356662 0.0222519 0)
(4.89452e-05 0.0113126 0)
(0.000316345 0.0338428 0)
(0.000897925 0.056416 0)
(0.0017367 0.0789509 0)
(0.00278989 0.101336 0)
(0.00402417 0.123438 0)
(0.00540424 0.14511 0)
(0.00689206 0.1662 0)
(0.0084491 0.186564 0)
(0.010038 0.206072 0)
(0.0116239 0.224617 0)
(0.0131758 0.242119 0)
(0.0146677 0.258534 0)
(0.0160796 0.27385 0)
(0.0173974 0.288088 0)
(0.0186138 0.301295 0)
(0.0197271 0.313544 0)
(0.0207407 0.32492 0)
(0.0216618 0.335515 0)
(0.0225005 0.34542 0)
(0.0232679 0.354717 0)
(0.0239755 0.363473 0)
(0.0246337 0.371741 0)
(0.0252511 0.379553 0)
(0.0258344 0.386924 0)
(0.0263879 0.39385 0)
(0.026914 0.400316 0)
(0.027413 0.406297 0)
(0.0278836 0.411759 0)
(0.0283236 0.416667 0)
(0.02873 0.420984 0)
(0.0290994 0.424678 0)
(0.0294283 0.427718 0)
(0.0297134 0.430082 0)
(0.0299518 0.431753 0)
(0.0301411 0.432723 0)
(0.0302792 0.432993 0)
(0.0303652 0.432571 0)
(0.0303983 0.431475 0)
(0.0303789 0.429733 0)
(0.0303081 0.427377 0)
(0.0301875 0.424448 0)
(0.0300196 0.420995 0)
(0.0298076 0.417068 0)
(0.029555 0.412723 0)
(0.0292661 0.408016 0)
(0.0289452 0.403003 0)
(0.0285972 0.397741 0)
(0.0282268 0.39228 0)
(0.0278386 0.386669 0)
(0.0274372 0.380949 0)
(0.0270267 0.375155 0)
(0.0266109 0.369316 0)
(0.026193 0.363453 0)
(0.0257757 0.35758 0)
(0.0253611 0.351706 0)
(0.0249508 0.345833 0)
(0.0245456 0.339959 0)
(0.0241462 0.334077 0)
(0.0237527 0.328179 0)
(0.0233648 0.322254 0)
(0.0229822 0.316293 0)
(0.0226043 0.310283 0)
(0.0222304 0.304214 0)
(0.0218597 0.298079 0)
(0.0214917 0.29187 0)
(0.0211258 0.28558 0)
(0.0207615 0.279206 0)
(0.0203982 0.272744 0)
(0.0200357 0.266192 0)
(0.0196736 0.259549 0)
(0.0193116 0.252815 0)
(0.0189494 0.245989 0)
(0.0185868 0.239071 0)
(0.0182234 0.232062 0)
(0.0178587 0.22496 0)
(0.0174924 0.217766 0)
(0.0171236 0.210479 0)
(0.0167518 0.203097 0)
(0.016376 0.195621 0)
(0.0159954 0.188049 0)
(0.0156088 0.180379 0)
(0.0152149 0.172609 0)
(0.0148125 0.164739 0)
(0.0143999 0.156765 0)
(0.0139755 0.148687 0)
(0.0135375 0.140502 0)
(0.0130839 0.132207 0)
(0.0126126 0.123802 0)
(0.0121214 0.115282 0)
(0.0116078 0.106645 0)
(0.0110692 0.0978887 0)
(0.010503 0.0890094 0)
(0.00990618 0.0800037 0)
(0.0092758 0.0708679 0)
(0.00860865 0.0615978 0)
(0.0079014 0.052189 0)
(0.00715064 0.0426366 0)
(0.00635281 0.0329353 0)
(0.00550427 0.0230793 0)
(4.98887e-05 0.0105631 0)
(0.000325838 0.0317538 0)
(0.000930545 0.0531431 0)
(0.00180926 0.0746579 0)
(0.00292179 0.0961943 0)
(0.00423739 0.117624 0)
(0.00572278 0.138801 0)
(0.00734119 0.159572 0)
(0.00905443 0.179785 0)
(0.0108245 0.199296 0)
(0.0126149 0.21798 0)
(0.0143922 0.235736 0)
(0.016127 0.252494 0)
(0.0177951 0.268215 0)
(0.0193787 0.282894 0)
(0.0208658 0.296555 0)
(0.0222509 0.309247 0)
(0.0235338 0.321039 0)
(0.0247191 0.332012 0)
(0.0258148 0.342249 0)
(0.0268309 0.351831 0)
(0.0277783 0.36083 0)
(0.0286674 0.3693 0)
(0.0295075 0.377283 0)
(0.0303059 0.384801 0)
(0.0310678 0.39186 0)
(0.031796 0.39845 0)
(0.0324913 0.404552 0)
(0.0331527 0.410138 0)
(0.0337779 0.415173 0)
(0.0343637 0.419624 0)
(0.0349063 0.423458 0)
(0.0354017 0.426644 0)
(0.035846 0.429159 0)
(0.0362357 0.430984 0)
(0.036568 0.43211 0)
(0.0368404 0.432536 0)
(0.0370514 0.432267 0)
(0.0372005 0.43132 0)
(0.0372876 0.42972 0)
(0.0373141 0.427498 0)
(0.0372816 0.424695 0)
(0.0371932 0.421355 0)
(0.0370524 0.417529 0)
(0.0368634 0.413272 0)
(0.0366311 0.40864 0)
(0.0363607 0.403689 0)
(0.0360577 0.398474 0)
(0.0357278 0.393048 0)
(0.0353765 0.38746 0)
(0.0350091 0.381752 0)
(0.0346306 0.375962 0)
(0.0342454 0.370118 0)
(0.0338574 0.364243 0)
(0.0334697 0.358355 0)
(0.0330849 0.352461 0)
(0.0327048 0.346567 0)
(0.0323306 0.34067 0)
(0.031963 0.334765 0)
(0.031602 0.328845 0)
(0.0312474 0.322899 0)
(0.0308988 0.316918 0)
(0.0305554 0.31089 0)
(0.0302163 0.304806 0)
(0.0298808 0.298657 0)
(0.029548 0.292434 0)
(0.0292173 0.286133 0)
(0.0288881 0.279747 0)
(0.0285597 0.273276 0)
(0.0282318 0.266714 0)
(0.0279041 0.260063 0)
(0.0275763 0.253321 0)
(0.027248 0.246488 0)
(0.0269189 0.239563 0)
(0.0265888 0.232547 0)
(0.0262572 0.22544 0)
(0.0259236 0.218241 0)
(0.0255874 0.21095 0)
(0.0252478 0.203566 0)
(0.024904 0.196088 0)
(0.024555 0.188515 0)
(0.0241996 0.180846 0)
(0.0238365 0.173079 0)
(0.0234643 0.165212 0)
(0.0230813 0.157245 0)
(0.0226858 0.149174 0)
(0.0222759 0.140998 0)
(0.0218495 0.132715 0)
(0.0214043 0.124323 0)
(0.0209379 0.115818 0)
(0.0204478 0.107199 0)
(0.0199313 0.0984626 0)
(0.0193853 0.0896053 0)
(0.018807 0.080624 0)
(0.0181929 0.0715147 0)
(0.0175398 0.0622735 0)
(0.0168441 0.0528959 0)
(0.0161021 0.043377 0)
(0.01531 0.0337114 0)
(0.0144639 0.0238934 0)
(5.03062e-05 0.00980889 0)
(0.000331839 0.0296359 0)
(0.000953098 0.0498018 0)
(0.00186213 0.0702426 0)
(0.00302177 0.0908632 0)
(0.0044043 0.111542 0)
(0.00597896 0.132139 0)
(0.00771086 0.152501 0)
(0.00956282 0.172472 0)
(0.0114969 0.191899 0)
(0.0134758 0.210643 0)
(0.015464 0.228585 0)
(0.0174292 0.245632 0)
(0.0193439 0.26172 0)
(0.0211859 0.276818 0)
(0.022939 0.290924 0)
(0.0245934 0.304066 0)
(0.0261453 0.316294 0)
(0.0275958 0.327673 0)
(0.0289503 0.338277 0)
(0.0302173 0.348183 0)
(0.0314066 0.357461 0)
(0.0325286 0.366171 0)
(0.0335927 0.374361 0)
(0.0346069 0.382058 0)
(0.0355772 0.389278 0)
(0.0365072 0.396019 0)
(0.0373982 0.402267 0)
(0.0382498 0.407998 0)
(0.0390597 0.413184 0)
(0.0398247 0.417792 0)
(0.0405406 0.421789 0)
(0.0412031 0.425145 0)
(0.0418077 0.427834 0)
(0.0423505 0.429839 0)
(0.0428279 0.431146 0)
(0.0432371 0.431752 0)
(0.0435763 0.431662 0)
(0.0438444 0.43089 0)
(0.0440415 0.429457 0)
(0.0441686 0.427393 0)
(0.0442278 0.424737 0)
(0.0442222 0.421531 0)
(0.0441557 0.417826 0)
(0.0440331 0.413675 0)
(0.0438598 0.409134 0)
(0.0436419 0.404257 0)
(0.0433855 0.399103 0)
(0.0430973 0.393722 0)
(0.0427835 0.388165 0)
(0.0424503 0.382476 0)
(0.0421035 0.376693 0)
(0.0417482 0.370848 0)
(0.0413891 0.364965 0)
(0.0410298 0.359062 0)
(0.0406734 0.353149 0)
(0.0403221 0.347233 0)
(0.0399774 0.341313 0)
(0.0396399 0.335386 0)
(0.0393101 0.329443 0)
(0.0389875 0.323477 0)
(0.0386717 0.317476 0)
(0.0383618 0.311431 0)
(0.0380568 0.305331 0)
(0.0377559 0.299168 0)
(0.037458 0.292933 0)
(0.0371623 0.286621 0)
(0.0368682 0.280226 0)
(0.0365749 0.273746 0)
(0.036282 0.267177 0)
(0.0359891 0.260518 0)
(0.0356959 0.253769 0)
(0.0354021 0.24693 0)
(0.0351073 0.239999 0)
(0.0348113 0.232978 0)
(0.0345136 0.225867 0)
(0.0342137 0.218664 0)
(0.0339111 0.21137 0)
(0.0336049 0.203984 0)
(0.0332942 0.196506 0)
(0.032978 0.188934 0)
(0.0326551 0.181266 0)
(0.0323241 0.173503 0)
(0.0319836 0.165642 0)
(0.0316317 0.157681 0)
(0.0312666 0.149619 0)
(0.0308863 0.141454 0)
(0.0304886 0.133184 0)
(0.0300711 0.124807 0)
(0.0296312 0.116319 0)
(0.0291663 0.107719 0)
(0.0286734 0.0990044 0)
(0.0281494 0.090171 0)
(0.0275911 0.0812159 0)
(0.026995 0.0721352 0)
(0.0263575 0.0629251 0)
(0.0256749 0.0535809 0)
(0.0249432 0.0440978 0)
(0.0241583 0.0344705 0)
(0.0233162 0.024693 0)
(5.02385e-05 0.00905802 0)
(0.000334556 0.0275123 0)
(0.000966094 0.0464298 0)
(0.00189614 0.0657561 0)
(0.00309095 0.0854058 0)
(0.00452612 0.105267 0)
(0.00617389 0.125206 0)
(0.00800177 0.145073 0)
(0.00997428 0.164714 0)
(0.0120543 0.183969 0)
(0.0142042 0.202691 0)
(0.0163872 0.220746 0)
(0.0185689 0.238019 0)
(0.0207184 0.254427 0)
(0.0228099 0.269911 0)
(0.0248228 0.284448 0)
(0.0267431 0.298039 0)
(0.0285626 0.310714 0)
(0.0302789 0.322521 0)
(0.0318943 0.333523 0)
(0.0334149 0.343788 0)
(0.0348492 0.353383 0)
(0.0362069 0.362371 0)
(0.0374975 0.370802 0)
(0.0387295 0.378712 0)
(0.0399094 0.386123 0)
(0.0410419 0.393041 0)
(0.042129 0.399459 0)
(0.0431709 0.405359 0)
(0.0441657 0.410717 0)
(0.0451102 0.415501 0)
(0.0460002 0.419682 0)
(0.0468309 0.423229 0)
(0.0475976 0.426116 0)
(0.0482956 0.428323 0)
(0.0489209 0.429835 0)
(0.0494701 0.430646 0)
(0.0499409 0.430759 0)
(0.0503319 0.430184 0)
(0.0506429 0.428942 0)
(0.0508747 0.427059 0)
(0.0510295 0.424572 0)
(0.0511106 0.421522 0)
(0.051122 0.417958 0)
(0.0510691 0.413931 0)
(0.0509578 0.409496 0)
(0.0507948 0.40471 0)
(0.050587 0.399627 0)
(0.0503418 0.394302 0)
(0.0500663 0.388786 0)
(0.0497677 0.383123 0)
(0.0494524 0.377353 0)
(0.0491265 0.371511 0)
(0.0487952 0.365621 0)
(0.0484631 0.359705 0)
(0.0481336 0.353775 0)
(0.0478094 0.347838 0)
(0.0474923 0.341895 0)
(0.0471833 0.335944 0)
(0.0468829 0.329979 0)
(0.0465908 0.323991 0)
(0.0463064 0.317971 0)
(0.0460288 0.311909 0)
(0.045757 0.305793 0)
(0.0454899 0.299617 0)
(0.0452263 0.29337 0)
(0.0449653 0.287048 0)
(0.0447061 0.280644 0)
(0.044448 0.274156 0)
(0.0441902 0.26758 0)
(0.0439325 0.260916 0)
(0.0436744 0.254161 0)
(0.0434156 0.247316 0)
(0.0431558 0.240381 0)
(0.0428947 0.233356 0)
(0.0426318 0.226241 0)
(0.0423666 0.219036 0)
(0.0420984 0.21174 0)
(0.0418266 0.204353 0)
(0.0415502 0.196875 0)
(0.041268 0.189305 0)
(0.0409789 0.181641 0)
(0.0406814 0.173882 0)
(0.0403738 0.166027 0)
(0.0400544 0.158075 0)
(0.0397212 0.150023 0)
(0.0393721 0.14187 0)
(0.0390047 0.133614 0)
(0.0386165 0.125253 0)
(0.0382048 0.116784 0)
(0.0377666 0.108205 0)
(0.037299 0.0995133 0)
(0.0367987 0.0907055 0)
(0.036262 0.0817785 0)
(0.0356856 0.0727285 0)
(0.0350654 0.0635515 0)
(0.0343974 0.054243 0)
(0.0336776 0.0447981 0)
(0.0329015 0.0352115 0)
(0.0320647 0.0254772 0)
(4.9728e-05 0.00831755 0)
(0.000334221 0.0254038 0)
(0.000970107 0.0430616 0)
(0.00191228 0.0612458 0)
(0.00313067 0.0798816 0)
(0.00460445 0.0988674 0)
(0.0063092 0.118079 0)
(0.00821534 0.137374 0)
(0.0102896 0.1566 0)
(0.0124965 0.175598 0)
(0.0147987 0.194213 0)
(0.017159 0.212301 0)
(0.0195413 0.229733 0)
(0.0219122 0.246403 0)
(0.0242422 0.262234 0)
(0.0265071 0.277174 0)
(0.0286882 0.291204 0)
(0.0307729 0.30433 0)
(0.0327549 0.316581 0)
(0.0346328 0.328006 0)
(0.03641 0.338661 0)
(0.038093 0.348609 0)
(0.0396902 0.357911 0)
(0.0412108 0.36662 0)
(0.0426635 0.374776 0)
(0.0440556 0.382409 0)
(0.0453924 0.389531 0)
(0.046677 0.396144 0)
(0.0479102 0.402235 0)
(0.0490908 0.407785 0)
(0.0502159 0.412766 0)
(0.0512812 0.41715 0)
(0.0522819 0.420908 0)
(0.0532128 0.424013 0)
(0.0540687 0.426442 0)
(0.054845 0.42818 0)
(0.0555378 0.429218 0)
(0.0561443 0.429556 0)
(0.0566625 0.429202 0)
(0.0570919 0.428173 0)
(0.0574332 0.426494 0)
(0.0576883 0.424198 0)
(0.0578605 0.421325 0)
(0.0579541 0.417921 0)
(0.0579748 0.414036 0)
(0.057929 0.409725 0)
(0.0578238 0.405043 0)
(0.057667 0.400047 0)
(0.0574666 0.394789 0)
(0.0572307 0.389323 0)
(0.0569671 0.383694 0)
(0.0566834 0.377944 0)
(0.0563863 0.372109 0)
(0.056082 0.366217 0)
(0.0557757 0.36029 0)
(0.0554714 0.354343 0)
(0.0551725 0.348385 0)
(0.0548812 0.34242 0)
(0.0545988 0.336445 0)
(0.0543259 0.330457 0)
(0.0540624 0.324447 0)
(0.0538078 0.318407 0)
(0.0535612 0.312326 0)
(0.0533214 0.306195 0)
(0.0530871 0.300005 0)
(0.0528571 0.293747 0)
(0.0526304 0.287415 0)
(0.0524059 0.281004 0)
(0.0521827 0.274508 0)
(0.0519603 0.267927 0)
(0.051738 0.261256 0)
(0.0515154 0.254497 0)
(0.0512922 0.247648 0)
(0.051068 0.240709 0)
(0.0508424 0.233681 0)
(0.0506151 0.226563 0)
(0.0503854 0.219356 0)
(0.0501528 0.212059 0)
(0.0499165 0.204673 0)
(0.0496754 0.197196 0)
(0.0494284 0.189628 0)
(0.0491743 0.181968 0)
(0.0489115 0.174215 0)
(0.0486383 0.166368 0)
(0.0483529 0.158425 0)
(0.0480531 0.150384 0)
(0.0477367 0.142245 0)
(0.0474011 0.134004 0)
(0.0470438 0.125661 0)
(0.0466619 0.117212 0)
(0.0462522 0.108655 0)
(0.0458116 0.0999884 0)
(0.0453365 0.0912081 0)
(0.0448233 0.0823111 0)
(0.0442681 0.0732937 0)
(0.0436668 0.064152 0)
(0.0430152 0.0548814 0)
(0.0423088 0.045477 0)
(0.0415429 0.0359336 0)
(0.040713 0.026245 0)
(4.88198e-05 0.00759369 0)
(0.000331082 0.0233292 0)
(0.000965777 0.0397283 0)
(0.00191166 0.0567551 0)
(0.00314251 0.0743456 0)
(0.00464125 0.0924097 0)
(0.00638706 0.110834 0)
(0.00835366 0.129485 0)
(0.0105107 0.148217 0)
(0.0128244 0.166873 0)
(0.0152591 0.185297 0)
(0.0177776 0.203337 0)
(0.0203429 0.220853 0)
(0.0229196 0.237722 0)
(0.0254754 0.253847 0)
(0.0279822 0.269155 0)
(0.0304172 0.283603 0)
(0.0327633 0.297174 0)
(0.0350098 0.309878 0)
(0.0371513 0.321744 0)
(0.0391878 0.332817 0)
(0.0411233 0.343151 0)
(0.0429645 0.352802 0)
(0.0447196 0.361823 0)
(0.0463972 0.37026 0)
(0.0480051 0.378146 0)
(0.0495492 0.385502 0)
(0.0510337 0.392334 0)
(0.0524602 0.398638 0)
(0.0538284 0.4044 0)
(0.0551356 0.409597 0)
(0.0563781 0.414203 0)
(0.0575509 0.418189 0)
(0.0586485 0.421529 0)
(0.0596654 0.4242 0)
(0.0605963 0.426183 0)
(0.0614369 0.427469 0)
(0.0621835 0.428053 0)
(0.0628339 0.427942 0)
(0.0633869 0.427148 0)
(0.0638428 0.425694 0)
(0.0642034 0.42361 0)
(0.0644718 0.420934 0)
(0.0646526 0.41771 0)
(0.0647514 0.413987 0)
(0.0647751 0.409817 0)
(0.0647313 0.405256 0)
(0.0646284 0.40036 0)
(0.0644752 0.395182 0)
(0.0642804 0.389777 0)
(0.064053 0.384191 0)
(0.0638012 0.378468 0)
(0.0635327 0.372646 0)
(0.0632546 0.366755 0)
(0.0629728 0.360821 0)
(0.0626923 0.354859 0)
(0.0624168 0.348881 0)
(0.0621493 0.342893 0)
(0.0618914 0.336894 0)
(0.061644 0.330882 0)
(0.0614073 0.324849 0)
(0.0611807 0.318788 0)
(0.0609634 0.312688 0)
(0.0607541 0.306541 0)
(0.0605515 0.300337 0)
(0.0603543 0.294067 0)
(0.0601612 0.287726 0)
(0.0599709 0.281306 0)
(0.0597827 0.274804 0)
(0.0595955 0.268217 0)
(0.0594088 0.261542 0)
(0.0592221 0.254779 0)
(0.059035 0.247926 0)
(0.058847 0.240984 0)
(0.0586577 0.233954 0)
(0.0584667 0.226834 0)
(0.0582735 0.219626 0)
(0.0580774 0.212329 0)
(0.0578775 0.204943 0)
(0.0576729 0.197469 0)
(0.0574623 0.189904 0)
(0.0572445 0.182249 0)
(0.0570177 0.174503 0)
(0.0567803 0.166664 0)
(0.0565303 0.158731 0)
(0.0562653 0.150703 0)
(0.0559831 0.142577 0)
(0.055681 0.134354 0)
(0.0553563 0.126029 0)
(0.0550057 0.117602 0)
(0.0546262 0.109069 0)
(0.0542143 0.100429 0)
(0.0537662 0.091678 0)
(0.053278 0.0828129 0)
(0.0527458 0.0738301 0)
(0.0521651 0.0647256 0)
(0.0515314 0.0554951 0)
(0.05084 0.0461336 0)
(0.050086 0.0366357 0)
(0.0492644 0.0269955 0)
(4.75601e-05 0.00689178 0)
(0.000325405 0.0213048 0)
(0.000953802 0.0364575 0)
(0.00189554 0.0523231 0)
(0.00312831 0.0688482 0)
(0.00463888 0.0859548 0)
(0.00641021 0.103541 0)
(0.00841964 0.121486 0)
(0.01064 0.13965 0)
(0.0130404 0.157884 0)
(0.0155868 0.176033 0)
(0.018243 0.193941 0)
(0.0209719 0.211462 0)
(0.0237368 0.228459 0)
(0.0265032 0.244819 0)
(0.0292397 0.260449 0)
(0.0319195 0.275284 0)
(0.0345213 0.289284 0)
(0.0370295 0.302439 0)
(0.0394346 0.314757 0)
(0.0417326 0.326269 0)
(0.0439244 0.337017 0)
(0.0460143 0.347051 0)
(0.0480092 0.35642 0)
(0.0499169 0.365172 0)
(0.0517452 0.373343 0)
(0.0535009 0.380961 0)
(0.0551888 0.388039 0)
(0.0568116 0.394579 0)
(0.0583698 0.400573 0)
(0.0598617 0.406004 0)
(0.0612837 0.410848 0)
(0.0626312 0.415079 0)
(0.0638985 0.418671 0)
(0.0650798 0.421601 0)
(0.0661693 0.423848 0)
(0.0671621 0.425399 0)
(0.0680538 0.426249 0)
(0.0688416 0.4264 0)
(0.0695238 0.425862 0)
(0.0701001 0.424654 0)
(0.0705721 0.422804 0)
(0.0709426 0.420346 0)
(0.0712161 0.417322 0)
(0.0713983 0.413779 0)
(0.0714963 0.409769 0)
(0.0715181 0.405345 0)
(0.0714728 0.400564 0)
(0.0713696 0.39548 0)
(0.0712183 0.390147 0)
(0.0710284 0.384614 0)
(0.0708093 0.378927 0)
(0.0705697 0.373124 0)
(0.0703173 0.36724 0)
(0.0700591 0.361301 0)
(0.0698008 0.355326 0)
(0.0695471 0.34933 0)
(0.0693013 0.343319 0)
(0.0690658 0.337296 0)
(0.0688418 0.331259 0)
(0.0686296 0.325202 0)
(0.0684291 0.319118 0)
(0.0682393 0.312999 0)
(0.068059 0.306834 0)
(0.0678869 0.300615 0)
(0.0677214 0.294334 0)
(0.067561 0.287982 0)
(0.0674046 0.281554 0)
(0.0672509 0.275046 0)
(0.0670989 0.268453 0)
(0.066948 0.261774 0)
(0.0667975 0.255007 0)
(0.0666468 0.248151 0)
(0.0664956 0.241207 0)
(0.0663433 0.234175 0)
(0.0661895 0.227054 0)
(0.0660337 0.219845 0)
(0.065875 0.212549 0)
(0.0657126 0.205165 0)
(0.0655456 0.197693 0)
(0.0653726 0.190132 0)
(0.0651923 0.182483 0)
(0.065003 0.174744 0)
(0.0648027 0.166914 0)
(0.0645895 0.158993 0)
(0.0643609 0.150978 0)
(0.0641145 0.142868 0)
(0.0638475 0.134662 0)
(0.0635568 0.126358 0)
(0.0632394 0.117954 0)
(0.0628917 0.109447 0)
(0.0625101 0.100835 0)
(0.0620907 0.0921145 0)
(0.0616293 0.083283 0)
(0.0611217 0.0743367 0)
(0.0605633 0.0652716 0)
(0.0599492 0.0560834 0)
(0.0592745 0.046767 0)
(0.058534 0.0373171 0)
(0.0577222 0.0277277 0)
(4.59966e-05 0.00621628 0)
(0.000317473 0.0193446 0)
(0.000934935 0.0332736 0)
(0.00186528 0.0479846 0)
(0.00309014 0.0634351 0)
(0.00460008 0.079559 0)
(0.00638195 0.0962673 0)
(0.00841693 0.11345 0)
(0.0106815 0.130981 0)
(0.0131478 0.148718 0)
(0.0157844 0.16651 0)
(0.0185566 0.184203 0)
(0.0214282 0.201646 0)
(0.0243618 0.218695 0)
(0.0273214 0.235223 0)
(0.030273 0.25112 0)
(0.0331862 0.2663 0)
(0.0360353 0.280703 0)
(0.0388006 0.294296 0)
(0.0414677 0.307069 0)
(0.0440284 0.319034 0)
(0.0464797 0.33022 0)
(0.0488231 0.340665 0)
(0.0510634 0.350415 0)
(0.0532071 0.359515 0)
(0.0552617 0.368004 0)
(0.0572342 0.375914 0)
(0.0591301 0.383264 0)
(0.0609533 0.390064 0)
(0.0627051 0.396311 0)
(0.0643847 0.401994 0)
(0.0659893 0.407092 0)
(0.0675145 0.411584 0)
(0.0689549 0.415443 0)
(0.0703043 0.418647 0)
(0.0715567 0.421173 0)
(0.0727064 0.423008 0)
(0.0737485 0.424142 0)
(0.0746795 0.424574 0)
(0.0754969 0.424311 0)
(0.0762001 0.423369 0)
(0.0767899 0.421773 0)
(0.0772689 0.419553 0)
(0.0776412 0.416749 0)
(0.0779128 0.413406 0)
(0.0780906 0.409574 0)
(0.0781832 0.405306 0)
(0.0781997 0.400656 0)
(0.0781503 0.39568 0)
(0.0780454 0.390432 0)
(0.0778953 0.384964 0)
(0.0777102 0.379321 0)
(0.0775 0.373545 0)
(0.0772733 0.367674 0)
(0.077038 0.361734 0)
(0.0768009 0.35575 0)
(0.0765673 0.349736 0)
(0.0763414 0.343703 0)
(0.0761261 0.337655 0)
(0.0759233 0.331592 0)
(0.0757336 0.325511 0)
(0.075557 0.319403 0)
(0.0753928 0.313262 0)
(0.0752398 0.307079 0)
(0.0750966 0.300844 0)
(0.0749615 0.294549 0)
(0.0748331 0.288186 0)
(0.0747097 0.28175 0)
(0.0745902 0.275234 0)
(0.0744733 0.268636 0)
(0.0743582 0.261953 0)
(0.0742442 0.255182 0)
(0.0741304 0.248324 0)
(0.0740165 0.241378 0)
(0.073902 0.234345 0)
(0.0737862 0.227223 0)
(0.0736685 0.220015 0)
(0.0735483 0.21272 0)
(0.0734245 0.205338 0)
(0.0732962 0.197869 0)
(0.0731621 0.190313 0)
(0.0730206 0.18267 0)
(0.07287 0.174939 0)
(0.0727083 0.16712 0)
(0.0725333 0.15921 0)
(0.0723427 0.15121 0)
(0.0721336 0.143117 0)
(0.0719032 0.13493 0)
(0.0716484 0.126647 0)
(0.0713657 0.118267 0)
(0.0710515 0.109787 0)
(0.070702 0.101205 0)
(0.070313 0.0925169 0)
(0.0698802 0.0837209 0)
(0.0693989 0.074813 0)
(0.0688644 0.0657892 0)
(0.0682716 0.0566453 0)
(0.0676152 0.0473763 0)
(0.0668898 0.0379768 0)
(0.0660895 0.0284407 0)
(4.41771e-05 0.00557087 0)
(0.000307575 0.0174604 0)
(0.000909972 0.0301972 0)
(0.00182236 0.0437702 0)
(0.00303025 0.0581469 0)
(0.00452792 0.0732731 0)
(0.0063061 0.0890727 0)
(0.00834994 0.105449 0)
(0.0106397 0.122288 0)
(0.0131513 0.139457 0)
(0.0158561 0.156815 0)
(0.0187219 0.174211 0)
(0.0217137 0.191493 0)
(0.0247947 0.208514 0)
(0.0279279 0.225136 0)
(0.0310773 0.241235 0)
(0.0342097 0.256709 0)
(0.0372957 0.271479 0)
(0.0403108 0.285488 0)
(0.0432362 0.298708 0)
(0.0460591 0.311131 0)
(0.0487722 0.322769 0)
(0.0513735 0.33365 0)
(0.0538647 0.343811 0)
(0.0562509 0.353291 0)
(0.0585384 0.36213 0)
(0.060734 0.370363 0)
(0.0628439 0.378014 0)
(0.0648725 0.385098 0)
(0.0668223 0.39162 0)
(0.0686937 0.397572 0)
(0.0704846 0.402942 0)
(0.0721912 0.407708 0)
(0.0738083 0.411849 0)
(0.07533 0.415341 0)
(0.0767497 0.418161 0)
(0.0780614 0.420294 0)
(0.0792595 0.421728 0)
(0.0803397 0.422458 0)
(0.0812989 0.422489 0)
(0.0821356 0.421833 0)
(0.0828502 0.42051 0)
(0.0834447 0.418548 0)
(0.083923 0.415985 0)
(0.0842906 0.412862 0)
(0.0845546 0.409227 0)
(0.0847236 0.405131 0)
(0.0848073 0.40063 0)