/*--------------------------------*- C++ -*----------------------------------*\
| =========                 |                                                 |
| \\      /  F ield         | OpenFOAM: The Open Source CFD Toolbox           |
|  \\    /   O peration     | Version:  2412                                  |
|   \\  /    A nd           | Website:  www.openfoam.com                      |
|    \\/     M anipulation  |                                                 |
\*---------------------------------------------------------------------------*/
FoamFile
{
    version     2.0;
    format      ascii;
    arch        "LSB;label=32;scalar=64";
    class       volScalarField;
    location    "0.99";
    object      p;
}
// * * * * * * * * * * * * * * * * * * * * * * * * * * * * * * * * * * * * * //

dimensions      [0 2 -2 0 0 0 0];

internalField   nonuniform List<scalar> 
257400
(
0.292122
0.120098
-0.0394913
-0.170875
-0.271687
-0.343986
-0.393589
-0.424839
-0.444972
-0.457644
-0.464742
-0.468414
-0.469117
-0.468774
-0.466155
-0.463419
-0.459303
-0.455461
-0.451315
-0.446926
-0.442469
-0.437933
-0.433791
-0.429223
-0.425007
-0.420558
-0.416301
-0.412094
-0.407806
-0.403805
-0.399625
-0.395789
-0.391997
-0.388065
-0.384211
-0.380495
-0.376679
-0.373077
-0.369553
-0.366039
-0.362488
-0.358938
-0.355556
-0.352148
-0.348789
-0.345571
-0.342409
-0.339243
-0.336037
-0.332889
-0.329864
-0.326868
-0.323841
-0.320833
-0.317944
-0.315082
-0.312218
-0.30932
-0.30654
-0.303795
-0.301006
-0.298305
-0.295665
-0.293052
-0.290419
-0.287788
-0.285251
-0.282674
-0.280272
-0.277717
-0.275293
-0.272901
-0.270477
-0.268117
-0.265737
-0.263429
-0.261119
-0.258849
-0.256625
-0.254421
0.299564
0.174699
0.0420727
-0.0790499
-0.184394
-0.269799
-0.33526
-0.381391
-0.413294
-0.434773
-0.448361
-0.456524
-0.460449
-0.462493
-0.46197
-0.460667
-0.457916
-0.454793
-0.451209
-0.447237
-0.443063
-0.43865
-0.434655
-0.430142
-0.426038
-0.421718
-0.417552
-0.41344
-0.409229
-0.405242
-0.40108
-0.39732
-0.393483
-0.389588
-0.385756
-0.382025
-0.378253
-0.374596
-0.371006
-0.367456
-0.363917
-0.360382
-0.356948
-0.353524
-0.350135
-0.346835
-0.343625
-0.340395
-0.337166
-0.333987
-0.330897
-0.327847
-0.324786
-0.321738
-0.318794
-0.315916
-0.313037
-0.310096
-0.307291
-0.304525
-0.301698
-0.298957
-0.296274
-0.293613
-0.290945
-0.288283
-0.285681
-0.28307
-0.280575
-0.278003
-0.275514
-0.273066
-0.270604
-0.268197
-0.265783
-0.263431
-0.261084
-0.258774
-0.256504
-0.254247
0.31733
0.217731
0.101633
-0.00771965
-0.110705
-0.201391
-0.276619
-0.334374
-0.376909
-0.407168
-0.427703
-0.441396
-0.449586
-0.45464
-0.456367
-0.456658
-0.455126
-0.452887
-0.450033
-0.44667
-0.44301
-0.438986
-0.435165
-0.431011
-0.426958
-0.422668
-0.418476
-0.414335
-0.410136
-0.406195
-0.402114
-0.398369
-0.394437
-0.390538
-0.3867
-0.382971
-0.379156
-0.37549
-0.371898
-0.368336
-0.364765
-0.361188
-0.357744
-0.354293
-0.350871
-0.347566
-0.344308
-0.341059
-0.337808
-0.334591
-0.331492
-0.328458
-0.325383
-0.322295
-0.319348
-0.316405
-0.313488
-0.310541
-0.307672
-0.30486
-0.302015
-0.299233
-0.296507
-0.293816
-0.291125
-0.288437
-0.285821
-0.28318
-0.280675
-0.278076
-0.275566
-0.273098
-0.270612
-0.268185
-0.265746
-0.263371
-0.261
-0.258662
-0.256363
-0.254065
0.328555
0.249734
0.16177
0.0588412
-0.0368356
-0.126475
-0.20713
-0.27454
-0.327903
-0.368418
-0.397816
-0.41858
-0.432272
-0.441529
-0.446531
-0.449258
-0.449606
-0.448748
-0.446933
-0.444357
-0.44132
-0.437753
-0.43429
-0.430403
-0.42663
-0.422667
-0.418701
-0.414746
-0.410521
-0.406647
-0.402693
-0.398842
-0.394947
-0.391133
-0.387325
-0.383626
-0.379827
-0.376164
-0.372571
-0.369011
-0.365445
-0.361864
-0.358417
-0.354956
-0.351514
-0.348181
-0.344863
-0.341605
-0.338349
-0.335125
-0.332014
-0.328934
-0.325841
-0.322743
-0.319722
-0.316757
-0.313827
-0.310857
-0.307969
-0.30514
-0.302273
-0.299465
-0.296713
-0.293997
-0.291284
-0.28857
-0.285931
-0.283259
-0.280732
-0.278106
-0.275569
-0.273079
-0.270566
-0.268117
-0.265653
-0.263255
-0.260859
-0.258494
-0.256168
-0.253833
0.331248
0.267023
0.194
0.107973
0.0250179
-0.0577906
-0.137153
-0.208773
-0.269744
-0.319254
-0.357623
-0.386423
-0.406883
-0.421569
-0.431033
-0.437187
-0.44023
-0.441392
-0.441124
-0.439749
-0.437673
-0.434858
-0.431967
-0.428556
-0.425149
-0.42148
-0.417746
-0.414013
-0.410035
-0.406327
-0.402491
-0.398524
-0.394823
-0.391078
-0.387318
-0.383675
-0.379922
-0.37629
-0.372723
-0.369185
-0.36564
-0.362071
-0.358635
-0.355182
-0.351737
-0.348387
-0.345038
-0.341789
-0.338532
-0.335298
-0.332179
-0.329082
-0.325988
-0.322884
-0.319861
-0.316886
-0.313945
-0.310963
-0.308058
-0.305216
-0.302334
-0.29951
-0.29674
-0.294008
-0.29128
-0.288548
-0.285896
-0.283203
-0.28066
-0.278017
-0.27546
-0.272952
-0.270421
-0.267954
-0.265471
-0.263053
-0.260637
-0.258247
-0.255901
-0.253533
0.328496
0.275562
0.217174
0.152707
0.0727394
-0.00141245
-0.0745506
-0.144955
-0.208891
-0.264167
-0.309762
-0.346068
-0.373602
-0.39433
-0.409024
-0.41945
-0.426008
-0.429912
-0.431793
-0.432107
-0.431376
-0.429631
-0.427566
-0.424847
-0.421988
-0.418797
-0.415461
-0.412079
-0.408454
-0.404883
-0.401212
-0.397376
-0.39387
-0.390198
-0.386535
-0.382988
-0.379322
-0.375761
-0.372255
-0.368769
-0.365275
-0.361749
-0.358349
-0.35493
-0.35151
-0.348176
-0.344848
-0.341581
-0.338325
-0.335094
-0.331967
-0.328891
-0.325816
-0.32272
-0.319698
-0.31672
-0.313779
-0.310799
-0.30789
-0.305045
-0.302161
-0.29933
-0.296553
-0.293813
-0.29108
-0.28834
-0.285681
-0.282977
-0.280425
-0.277775
-0.275204
-0.272687
-0.270144
-0.267666
-0.26517
-0.262738
-0.260309
-0.257902
-0.255543
-0.253149
0.322841
0.278371
0.229492
0.174539
0.11148
0.0434617
-0.022392
-0.0880269
-0.150831
-0.208195
-0.258214
-0.300231
-0.333978
-0.360609
-0.380721
-0.395823
-0.406479
-0.413752
-0.418369
-0.420885
-0.421926
-0.42162
-0.420682
-0.418916
-0.416819
-0.41428
-0.411482
-0.408543
-0.40527
-0.40201
-0.39866
-0.395154
-0.391796
-0.388296
-0.38479
-0.381385
-0.377856
-0.374409
-0.371002
-0.367605
-0.364198
-0.36075
-0.357415
-0.35406
-0.350699
-0.347419
-0.344152
-0.340902
-0.337629
-0.334385
-0.331268
-0.328242
-0.325213
-0.322149
-0.319149
-0.316187
-0.313263
-0.3103
-0.307402
-0.304567
-0.301695
-0.298872
-0.296099
-0.293363
-0.290637
-0.287899
-0.285245
-0.282542
-0.279988
-0.277342
-0.274767
-0.272249
-0.269704
-0.267223
-0.264723
-0.262285
-0.25985
-0.257433
-0.255071
-0.252661
0.315647
0.277567
0.236144
0.190364
0.138657
0.0765007
0.0185371
-0.0405841
-0.0993192
-0.155554
-0.20703
-0.252369
-0.290666
-0.322247
-0.347379
-0.367067
-0.381938
-0.392913
-0.400693
-0.405855
-0.409071
-0.410567
-0.411065
-0.410517
-0.409405
-0.407712
-0.405631
-0.403311
-0.400591
-0.397718
-0.394664
-0.391546
-0.388458
-0.385229
-0.381951
-0.378742
-0.375405
-0.372121
-0.368858
-0.365592
-0.36231
-0.358981
-0.355743
-0.352485
-0.349216
-0.346021
-0.342844
-0.339689
-0.336472
-0.333233
-0.330045
-0.327075
-0.324116
-0.321112
-0.318155
-0.315228
-0.312337
-0.309411
-0.306539
-0.303729
-0.300885
-0.298084
-0.295331
-0.292611
-0.289904
-0.287184
-0.284545
-0.281857
-0.279311
-0.276681
-0.274114
-0.271604
-0.269068
-0.266593
-0.2641
-0.261665
-0.259235
-0.256818
-0.254463
-0.252048
0.307745
0.274683
0.239158
0.200347
0.157424
0.109967
0.050731
-0.00264715
-0.055893
-0.108826
-0.15931
-0.205648
-0.246549
-0.281641
-0.310835
-0.334609
-0.35343
-0.368021
-0.3791
-0.387166
-0.392856
-0.396458
-0.398669
-0.399589
-0.399679
-0.399019
-0.39782
-0.396267
-0.394468
-0.392036
-0.389236
-0.386549
-0.383826
-0.380933
-0.377951
-0.374996
-0.371907
-0.368835
-0.365761
-0.362668
-0.359552
-0.356381
-0.353274
-0.350145
-0.347
-0.343908
-0.340824
-0.337745
-0.334612
-0.331454
-0.328294
-0.325343
-0.322471
-0.319559
-0.316672
-0.3138
-0.31096
-0.308089
-0.305263
-0.302492
-0.299693
-0.296931
-0.294211
-0.291522
-0.288848
-0.286159
-0.283548
-0.280889
-0.278362
-0.275762
-0.273215
-0.270724
-0.268209
-0.265751
-0.263276
-0.260854
-0.258441
-0.256034
-0.253698
-0.25129
0.299601
0.270538
0.23964
0.206154
0.169142
0.127708
0.081154
0.0282846
-0.0205046
-0.0690684
-0.116852
-0.162315
-0.204016
-0.241073
-0.2731
-0.3001
-0.322331
-0.340216
-0.354383
-0.365344
-0.37363
-0.37953
-0.383667
-0.386257
-0.38774
-0.388268
-0.388033
-0.387376
-0.386172
-0.3844
-0.382354
-0.380206
-0.377902
-0.375413
-0.372796
-0.370152
-0.367363
-0.364551
-0.36171
-0.358831
-0.355919
-0.352942
-0.350001
-0.347032
-0.344038
-0.341079
-0.33812
-0.335165
-0.332171
-0.329161
-0.326151
-0.323002
-0.32022
-0.317445
-0.314669
-0.311882
-0.309114
-0.306316
-0.303553
-0.300837
-0.298099
-0.29539
-0.292719
-0.290075
-0.287448
-0.284804
-0.282234
-0.279618
-0.277122
-0.274563
-0.272049
-0.269588
-0.267105
-0.264675
-0.262231
-0.259834
-0.257448
-0.255063
-0.252756
-0.250368
0.291477
0.265646
0.238438
0.209166
0.177027
0.141404
0.101837
0.0570505
0.00859633
-0.0362047
-0.0803958
-0.123633
-0.164671
-0.2023
-0.235926
-0.265159
-0.290044
-0.310725
-0.32765
-0.341231
-0.352
-0.360226
-0.366405
-0.3708
-0.373817
-0.37565
-0.376853
-0.377082
-0.376369
-0.375462
-0.374164
-0.372577
-0.370773
-0.368755
-0.366559
-0.364277
-0.361834
-0.359327
-0.356759
-0.354132
-0.351457
-0.348707
-0.345963
-0.343181
-0.340366
-0.337565
-0.334754
-0.33194
-0.329093
-0.326232
-0.323386
-0.320503
-0.317456
-0.314715
-0.312097
-0.309449
-0.306792
-0.304092
-0.30141
-0.298766
-0.296102
-0.293462
-0.290853
-0.288267
-0.285699
-0.283115
-0.280596
-0.278037
-0.275581
-0.273076
-0.270607
-0.268187
-0.265748
-0.263357
-0.260954
-0.258593
-0.256245
-0.253894
-0.251625
-0.24927
0.283522
0.260346
0.236148
0.210321
0.182178
0.151088
0.116644
0.078606
0.0363047
-0.00891398
-0.0500167
-0.09026
-0.129469
-0.166485
-0.200599
-0.23109
-0.257816
-0.280671
-0.299911
-0.315805
-0.328768
-0.339137
-0.347328
-0.353602
-0.358275
-0.361839
-0.363813
-0.364849
-0.365316
-0.365317
-0.364752
-0.363812
-0.362584
-0.361088
-0.359359
-0.357486
-0.355428
-0.353263
-0.351003
-0.348661
-0.346251
-0.343756
-0.341234
-0.338665
-0.33605
-0.333428
-0.330786
-0.328132
-0.325448
-0.322746
-0.320055
-0.317358
-0.314643
-0.311781
-0.309051
-0.306531
-0.304018
-0.301441
-0.298859
-0.2963
-0.293724
-0.291165
-0.288631
-0.286114
-0.283616
-0.281102
-0.278645
-0.276153
-0.273749
-0.271306
-0.268893
-0.266523
-0.264138
-0.261796
-0.259445
-0.257128
-0.25483
-0.252522
-0.2503
-0.247991
0.27582
0.254856
0.233144
0.210142
0.18523
0.157801
0.127528
0.094143
0.0579731
0.0185088
-0.0246136
-0.0623805
-0.0991981
-0.134554
-0.168078
-0.198857
-0.226597
-0.250961
-0.271999
-0.289827
-0.304752
-0.317065
-0.327017
-0.33512
-0.341517
-0.346097
-0.349367
-0.351752
-0.353283
-0.354116
-0.354339
-0.354108
-0.353499
-0.352562
-0.35134
-0.349914
-0.348274
-0.346482
-0.344561
-0.34253
-0.34041
-0.33819
-0.335914
-0.333576
-0.33118
-0.328756
-0.3263
-0.323822
-0.321312
-0.318776
-0.316233
-0.313668
-0.311062
-0.308415
-0.305744
-0.303226
-0.300832
-0.2984
-0.295941
-0.293482
-0.291003
-0.288535
-0.286085
-0.283647
-0.281227
-0.278793
-0.276406
-0.273989
-0.271645
-0.269273
-0.266924
-0.264612
-0.26229
-0.260003
-0.257712
-0.25545
-0.253207
-0.250954
-0.248785
-0.24653
0.268413
0.249312
0.229676
0.209015
0.186768
0.162372
0.135524
0.10593
0.0737609
0.0395149
0.00371075
-0.0365421
-0.0739003
-0.107175
-0.139382
-0.169513
-0.197392
-0.222544
-0.244804
-0.264108
-0.280626
-0.294801
-0.306216
-0.315737
-0.323455
-0.329516
-0.33424
-0.337805
-0.340339
-0.342077
-0.343138
-0.343643
-0.343684
-0.343339
-0.342654
-0.341705
-0.340508
-0.339115
-0.337556
-0.335859
-0.334048
-0.33212
-0.330107
-0.328016
-0.325854
-0.323644
-0.321387
-0.319097
-0.31677
-0.314407
-0.312023
-0.309616
-0.307183
-0.304722
-0.302253
-0.299679
-0.297306
-0.29501
-0.292699
-0.290358
-0.287988
-0.285619
-0.28326
-0.280908
-0.278572
-0.276223
-0.273912
-0.271578
-0.269301
-0.267004
-0.264726
-0.262479
-0.260224
-0.258
-0.255775
-0.253573
-0.251393
-0.2492
-0.247089
-0.244897
0.261319
0.243805
0.225921
0.207224
0.187202
0.165336
0.141336
0.114909
0.0861088
0.055084
0.0223258
-0.0110631
-0.0454181
-0.0814865
-0.114599
-0.144152
-0.171664
-0.196895
-0.219753
-0.239972
-0.257
-0.271809
-0.285136
-0.296123
-0.305095
-0.312506
-0.318474
-0.323153
-0.326735
-0.329414
-0.331322
-0.33258
-0.333297
-0.333567
-0.33344
-0.332992
-0.332257
-0.331282
-0.330105
-0.328759
-0.327273
-0.325649
-0.323915
-0.322083
-0.320166
-0.31818
-0.316134
-0.314043
-0.311906
-0.309725
-0.307511
-0.305268
-0.303
-0.300701
-0.298391
-0.29605
-0.2936
-0.291328
-0.289158
-0.286962
-0.284722
-0.282465
-0.280203
-0.277943
-0.275695
-0.273437
-0.271207
-0.268958
-0.266753
-0.264535
-0.262332
-0.260153
-0.257971
-0.255814
-0.253659
-0.251522
-0.249407
-0.24728
-0.24523
-0.243106
0.254541
0.238392
0.222002
0.204968
0.186822
0.167084
0.145478
0.121715
0.0957902
0.0677616
0.0379823
0.00685847
-0.0249216
-0.0558901
-0.0861458
-0.116479
-0.144589
-0.170309
-0.193543
-0.214534
-0.233864
-0.250432
-0.264532
-0.276544
-0.28672
-0.29527
-0.302328
-0.308083
-0.31269
-0.316296
-0.319049
-0.321071
-0.322479
-0.323376
-0.323822
-0.32389
-0.323632
-0.32309
-0.322308
-0.321327
-0.320178
-0.31887
-0.317424
-0.315863
-0.314199
-0.312447
-0.31062
-0.308735
-0.306795
-0.304801
-0.302763
-0.300687
-0.298581
-0.296443
-0.294287
-0.292113
-0.289934
-0.287665
-0.285422
-0.283346
-0.281253
-0.279119
-0.276963
-0.2748
-0.272643
-0.270476
-0.26833
-0.266169
-0.26404
-0.261903
-0.259777
-0.25767
-0.255562
-0.253475
-0.251391
-0.249322
-0.247275
-0.245217
-0.243229
-0.241177
0.248075
0.233108
0.218003
0.20239
0.185839
0.167907
0.148333
0.12684
0.103392
0.0780001
0.0508607
0.022303
-0.00708977
-0.0367651
-0.0663782
-0.0949983
-0.122169
-0.147612
-0.171216
-0.192806
-0.212182
-0.229239
-0.244176
-0.257237
-0.26847
-0.27804
-0.286102
-0.292837
-0.298391
-0.302884
-0.306466
-0.309249
-0.31135
-0.31288
-0.313905
-0.3145
-0.314726
-0.314628
-0.314252
-0.313646
-0.312843
-0.311857
-0.310709
-0.309425
-0.308021
-0.306511
-0.30491
-0.303237
-0.301499
-0.299696
-0.297837
-0.295931
-0.29399
-0.292012
-0.290005
-0.28797
-0.285905
-0.283799
-0.281661
-0.279602
-0.277627
-0.275624
-0.273582
-0.27152
-0.269456
-0.267383
-0.265322
-0.26325
-0.261199
-0.259144
-0.257096
-0.255063
-0.25303
-0.251013
-0.249003
-0.247003
-0.245024
-0.243036
-0.24111
-0.23913
0.24191
0.227976
0.213985
0.199596
0.184412
0.168025
0.150188
0.130639
0.109318
0.0862086
0.0614374
0.0352607
0.00800902
-0.0197899
-0.0476215
-0.0748944
-0.10133
-0.126388
-0.149824
-0.171433
-0.191099
-0.208802
-0.224535
-0.238433
-0.250534
-0.261007
-0.269981
-0.277604
-0.284016
-0.289337
-0.293711
-0.297233
-0.300015
-0.302175
-0.303779
-0.304903
-0.305619
-0.305969
-0.306006
-0.30578
-0.30533
-0.304673
-0.303829
-0.302828
-0.30169
-0.300426
-0.299056
-0.2976
-0.296067
-0.294459
-0.292782
-0.29105
-0.289274
-0.287455
-0.285597
-0.283703
-0.281782
-0.279833
-0.277855
-0.275797
-0.273885
-0.272007
-0.270093
-0.26814
-0.266171
-0.264191
-0.262218
-0.260234
-0.258262
-0.256289
-0.25432
-0.252361
-0.250403
-0.248459
-0.24652
-0.24459
-0.242679
-0.240761
-0.238897
-0.236988
0.236032
0.223007
0.209989
0.196662
0.182659
0.167602
0.151261
0.133385
0.113902
0.0927778
0.0700913
0.0460324
0.0208479
-0.00499118
-0.0311445
-0.0571213
-0.0825522
-0.106921
-0.129977
-0.151511
-0.171371
-0.189466
-0.205723
-0.220253
-0.233076
-0.244326
-0.254098
-0.262519
-0.269717
-0.2758
-0.280908
-0.28513
-0.288571
-0.291346
-0.293521
-0.295172
-0.296375
-0.297175
-0.297627
-0.297786
-0.297692
-0.297367
-0.29683
-0.296117
-0.295247
-0.294234
-0.293099
-0.291864
-0.290539
-0.289127
-0.287636
-0.28608
-0.284471
-0.282811
-0.281104
-0.279355
-0.277578
-0.275772
-0.273941
-0.272088
-0.270136
-0.268299
-0.26652
-0.264686
-0.262817
-0.260932
-0.259046
-0.257149
-0.255258
-0.253366
-0.251476
-0.249591
-0.247709
-0.245835
-0.243968
-0.242107
-0.240264
-0.238415
-0.236611
-0.234772
0.230428
0.218208
0.206044
0.193646
0.18067
0.166766
0.15172
0.135294
0.117408
0.0980159
0.0771645
0.0549995
0.0317003
0.00764088
-0.0169153
-0.041503
-0.0657926
-0.0893363
-0.111866
-0.133142
-0.152963
-0.171221
-0.187817
-0.202826
-0.216228
-0.22812
-0.238574
-0.247697
-0.255603
-0.262383
-0.268168
-0.27304
-0.277105
-0.28047
-0.2832
-0.285367
-0.287052
-0.288298
-0.289164
-0.289706
-0.289969
-0.289977
-0.289751
-0.289326
-0.288727
-0.287968
-0.287071
-0.286058
-0.284944
-0.283731
-0.282427
-0.281048
-0.279607
-0.278108
-0.276553
-0.274951
-0.273313
-0.271642
-0.269939
-0.268198
-0.266408
-0.264536
-0.262878
-0.261166
-0.25941
-0.257625
-0.255828
-0.254018
-0.252208
-0.250397
-0.248585
-0.246775
-0.244967
-0.243164
-0.241367
-0.239575
-0.237797
-0.236016
-0.234271
-0.2325
0.225083
0.213579
0.202172
0.190588
0.178511
0.165614
0.151695
0.136533
0.120042
0.102168
0.0829345
0.0624549
0.0408541
0.0184398
-0.0045721
-0.0277797
-0.0509026
-0.0735341
-0.0953995
-0.116252
-0.13587
-0.154134
-0.170914
-0.186246
-0.200079
-0.212484
-0.223509
-0.233236
-0.241764
-0.24917
-0.255575
-0.261051
-0.265696
-0.269617
-0.272877
-0.275544
-0.277698
-0.279383
-0.280657
-0.281581
-0.282199
-0.282539
-0.282622
-0.282487
-0.28216
-0.281654
-0.280996
-0.280208
-0.279305
-0.278292
-0.277177
-0.275976
-0.274705
-0.273367
-0.271965
-0.270508
-0.269009
-0.267471
-0.265894
-0.264284
-0.262654
-0.261019
-0.259236
-0.257603
-0.255968
-0.254288
-0.252582
-0.250859
-0.24913
-0.247399
-0.245665
-0.24393
-0.242194
-0.240462
-0.238734
-0.237009
-0.235296
-0.233581
-0.231895
-0.230188
0.219982
0.209119
0.198384
0.187522
0.176236
0.164222
0.151291
0.137236
0.121968
0.105429
0.0876257
0.0686465
0.0485794
0.0276799
0.00611841
-0.0157638
-0.0377208
-0.0593862
-0.0804974
-0.100813
-0.120104
-0.138236
-0.155054
-0.170567
-0.184698
-0.197494
-0.208979
-0.219213
-0.228279
-0.236239
-0.243201
-0.249228
-0.254411
-0.258852
-0.262611
-0.265754
-0.26836
-0.270471
-0.272145
-0.273443
-0.274411
-0.275079
-0.27547
-0.275624
-0.275567
-0.275316
-0.274897
-0.274333
-0.273642
-0.27283
-0.271903
-0.270882
-0.26978
-0.268604
-0.267355
-0.266044
-0.264683
-0.263279
-0.26183
-0.260343
-0.258821
-0.257249
-0.255616
-0.254047
-0.252511
-0.250934
-0.24932
-0.247684
-0.246037
-0.244386
-0.242729
-0.241067
-0.239404
-0.237742
-0.236083
-0.234424
-0.232774
-0.231124
-0.229494
-0.22785
0.215111
0.204824
0.19469
0.184469
0.173883
0.162648
0.150588
0.137506
0.123316
0.107956
0.0914219
0.0737806
0.0550953
0.0355778
0.015362
-0.00526052
-0.0260761
-0.0467595
-0.067067
-0.0867671
-0.105631
-0.123514
-0.140248
-0.155818
-0.17013
-0.183204
-0.195044
-0.205691
-0.215211
-0.22365
-0.231105
-0.23763
-0.243305
-0.248227
-0.252453
-0.256045
-0.25908
-0.261599
-0.263661
-0.265323
-0.266635
-0.267626
-0.26832
-0.268759
-0.268971
-0.268972
-0.26879
-0.268451
-0.267971
-0.267358
-0.266621
-0.265778
-0.264847
-0.263832
-0.262736
-0.26157
-0.260349
-0.259077
-0.257754
-0.256385
-0.254977
-0.25353
-0.252046
-0.250499
-0.249048
-0.247572
-0.246053
-0.244504
-0.242938
-0.241366
-0.239786
-0.238198
-0.236607
-0.235013
-0.233421
-0.231828
-0.230241
-0.228653
-0.22708
-0.225496
0.210456
0.20069
0.191095
0.181447
0.171484
0.16094
0.149649
0.137429
0.124193
0.109878
0.0944725
0.0780264
0.0605849
0.0423248
0.0233513
0.00391376
-0.0158043
-0.0355157
-0.0549967
-0.07403
-0.0923926
-0.109938
-0.126488
-0.142011
-0.156396
-0.169646
-0.181745
-0.192716
-0.202608
-0.211455
-0.21934
-0.226306
-0.232425
-0.237788
-0.242446
-0.246458
-0.249897
-0.252805
-0.255236
-0.257251
-0.258896
-0.260201
-0.261193
-0.261912
-0.262388
-0.262638
-0.262692
-0.262575
-0.262305
-0.261891
-0.261342
-0.260677
-0.259915
-0.259061
-0.258118
-0.257098
-0.256014
-0.254875
-0.253677
-0.252428
-0.251138
-0.249808
-0.248434
-0.247018
-0.24559
-0.244209
-0.242788
-0.241327
-0.239841
-0.238347
-0.236843
-0.235329
-0.233809
-0.232284
-0.230759
-0.22923
-0.227705
-0.226178
-0.224661
-0.223134
0.206004
0.19671
0.187603
0.178468
0.169061
0.159133
0.148527
0.137072
0.124683
0.111298
0.0968999
0.0815245
0.0652033
0.048086
0.0302548
0.0119231
-0.00675207
-0.0255174
-0.0441698
-0.0625085
-0.08032
-0.0974599
-0.113747
-0.129135
-0.143504
-0.156838
-0.169109
-0.180321
-0.190508
-0.199693
-0.207944
-0.215296
-0.221811
-0.227572
-0.232627
-0.237027
-0.240845
-0.244118
-0.246901
-0.249252
-0.251217
-0.252828
-0.254108
-0.255101
-0.255836
-0.256332
-0.256617
-0.256719
-0.256657
-0.256439
-0.256077
-0.255589
-0.254995
-0.254301
-0.253509
-0.252634
-0.251689
-0.25068
-0.249608
-0.24848
-0.247306
-0.246087
-0.244821
-0.243508
-0.242131
-0.24085
-0.239527
-0.238156
-0.236752
-0.235336
-0.233907
-0.232465
-0.231016
-0.22956
-0.2281
-0.226635
-0.225171
-0.223704
-0.222242
-0.220772
0.201743
0.192879
0.184213
0.175541
0.166634
0.157256
0.147262
0.136489
0.124856
0.112303
0.0988053
0.0843915
0.0690808
0.0530018
0.0362183
0.0189135
0.00122138
-0.0166347
-0.0344717
-0.0521059
-0.0693361
-0.0860227
-0.101985
-0.117167
-0.131443
-0.144784
-0.157148
-0.168525
-0.178937
-0.188393
-0.196951
-0.204634
-0.211497
-0.217613
-0.223026
-0.227784
-0.231952
-0.235568
-0.238682
-0.241351
-0.243622
-0.245525
-0.247085
-0.248344
-0.249331
-0.250066
-0.250579
-0.250896
-0.251038
-0.251014
-0.250836
-0.250523
-0.250096
-0.249559
-0.248919
-0.248187
-0.247379
-0.246501
-0.245553
-0.244544
-0.243485
-0.242375
-0.241218
-0.240023
-0.238799
-0.237506
-0.236273
-0.234995
-0.233674
-0.232336
-0.230982
-0.229612
-0.228233
-0.226844
-0.22545
-0.224048
-0.222644
-0.221236
-0.219829
-0.218413
0.197662
0.189191
0.180925
0.172673
0.164216
0.155333
0.145888
0.135726
0.12477
0.11296
0.100272
0.0867243
0.0723268
0.0571915
0.0413679
0.0250135
0.00824286
-0.00874734
-0.0257926
-0.0427262
-0.0593599
-0.0755615
-0.0911532
-0.106075
-0.120195
-0.133475
-0.145864
-0.157339
-0.16791
-0.177576
-0.186383
-0.194344
-0.201507
-0.207937
-0.213672
-0.218753
-0.223244
-0.227176
-0.2306
-0.233571
-0.236131
-0.238313
-0.24014
-0.241655
-0.242887
-0.243854
-0.244589
-0.245116
-0.245458
-0.245625
-0.245628
-0.245488
-0.245224
-0.244844
-0.244353
-0.243763
-0.24309
-0.242342
-0.241518
-0.240627
-0.239681
-0.238681
-0.23763
-0.236534
-0.235382
-0.234151
-0.23303
-0.231842
-0.230608
-0.22935
-0.228071
-0.226772
-0.225463
-0.224141
-0.222811
-0.221471
-0.220127
-0.218777
-0.217425
-0.216063
0.193749
0.185639
0.177739
0.169868
0.161817
0.153382
0.14443
0.134817
0.12447
0.11333
0.10137
0.0886038
0.0750337
0.0607568
0.0458123
0.0303358
0.0144254
-0.00174559
-0.0180296
-0.0342761
-0.0503103
-0.0660083
-0.0811979
-0.0958156
-0.10973
-0.122893
-0.135248
-0.146762
-0.157434
-0.167253
-0.176255
-0.184447
-0.191864
-0.198566
-0.204585
-0.209957
-0.214741
-0.218965
-0.222677
-0.225928
-0.228762
-0.231208
-0.23329
-0.23505
-0.236516
-0.237709
-0.238658
-0.239391
-0.239928
-0.240281
-0.240461
-0.240491
-0.240388
-0.240162
-0.239817
-0.239368
-0.238829
-0.238209
-0.237507
-0.236733
-0.235899
-0.235006
-0.234058
-0.233064
-0.232035
-0.230988
-0.229817
-0.228701
-0.227558
-0.226381
-0.225176
-0.223949
-0.222708
-0.221453
-0.220186
-0.218909
-0.217623
-0.216331
-0.215033
-0.213723
0.189996
0.182218
0.174652
0.167127
0.159447
0.151416
0.14291
0.133794
0.123995
0.113459
0.102157
0.090098
0.0772789
0.0637841
0.0496448
0.0349784
0.0198691
0.00446948
-0.011088
-0.0266677
-0.0421082
-0.0572946
-0.0720614
-0.0863445
-0.100013
-0.113015
-0.125286
-0.136787
-0.147508
-0.157429
-0.166578
-0.174953
-0.182582
-0.189516
-0.195783
-0.201413
-0.206461
-0.210951
-0.214928
-0.21844
-0.22153
-0.224225
-0.226548
-0.228542
-0.230233
-0.231642
-0.232799
-0.23373
-0.234456
-0.23499
-0.235344
-0.235539
-0.235594
-0.235519
-0.235319
-0.235007
-0.2346
-0.234106
-0.233525
-0.232866
-0.232143
-0.231356
-0.230511
-0.229615
-0.228677
-0.227682
-0.226621
-0.225593
-0.224532
-0.223432
-0.2223
-0.221143
-0.219971
-0.218781
-0.217579
-0.216362
-0.215135
-0.213899
-0.212655
-0.211397
0.186393
0.17892
0.171662
0.164455
0.157111
0.149448
0.141346
0.132679
0.123377
0.113388
0.102682
0.0912642
0.0791281
0.0663472
0.0529458
0.0390268
0.024662
0.00998638
-0.00488136
-0.0198192
-0.0346785
-0.0493532
-0.0636859
-0.0776129
-0.0910059
-0.10381
-0.115957
-0.1274
-0.138124
-0.148103
-0.157354
-0.165869
-0.173669
-0.180799
-0.187279
-0.193136
-0.198418
-0.203149
-0.207368
-0.211121
-0.214448
-0.217376
-0.219928
-0.222142
-0.224048
-0.225663
-0.227019
-0.228141
-0.229051
-0.229761
-0.230283
-0.230639
-0.230849
-0.230921
-0.230862
-0.230686
-0.230408
-0.230038
-0.229576
-0.229031
-0.228417
-0.227735
-0.226989
-0.226189
-0.225338
-0.224434
-0.223478
-0.222516
-0.221529
-0.220505
-0.219445
-0.218359
-0.217254
-0.216129
-0.214989
-0.213833
-0.212664
-0.211484
-0.210293
-0.209087
0.182931
0.175741
0.168766
0.161849
0.154814
0.147486
0.139752
0.131493
0.122642
0.113149
0.102985
0.0921505
0.0806371
0.0685088
0.0557846
0.042555
0.0288816
0.0148839
0.000668394
-0.0136552
-0.0279503
-0.0421196
-0.0560139
-0.0695714
-0.0826674
-0.0952446
-0.107234
-0.118584
-0.129272
-0.139268
-0.148581
-0.157197
-0.165131
-0.17242
-0.179081
-0.185134
-0.190624
-0.19557
-0.200008
-0.203982
-0.207528
-0.210674
-0.213439
-0.215862
-0.21797
-0.219782
-0.221328
-0.222634
-0.22372
-0.2246
-0.225285
-0.225798
-0.226158
-0.226374
-0.226453
-0.226409
-0.226258
-0.22601
-0.225664
-0.225231
-0.224724
-0.224145
-0.223497
-0.222791
-0.222033
-0.221227
-0.220371
-0.219458
-0.218549
-0.217601
-0.216614
-0.215597
-0.214558
-0.213498
-0.212419
-0.211323
-0.210211
-0.209087
-0.207948
-0.206793
0.179603
0.172674
0.16596
0.159312
0.15256
0.145537
0.13814
0.130253
0.121813
0.112771
0.1031
0.0927977
0.0818532
0.0703228
0.0582207
0.0456274
0.0325958
0.0192319
0.00563138
-0.00810714
-0.0218581
-0.0355327
-0.0489902
-0.0621711
-0.0749553
-0.0872848
-0.0990898
-0.110315
-0.120934
-0.130912
-0.140253
-0.148935
-0.156969
-0.164385
-0.171195
-0.177416
-0.183087
-0.188223
-0.192858
-0.197032
-0.20078
-0.204126
-0.20709
-0.209708
-0.212008
-0.214007
-0.215734
-0.217214
-0.21847
-0.219513
-0.220356
-0.22102
-0.221526
-0.221882
-0.222095
-0.222181
-0.222154
-0.222024
-0.221793
-0.221469
-0.221068
-0.220589
-0.220039
-0.219427
-0.21876
-0.218041
-0.217262
-0.216418
-0.215593
-0.21472
-0.213806
-0.212858
-0.211885
-0.210888
-0.209871
-0.208833
-0.207778
-0.206709
-0.205622
-0.204518
0.1764
0.169715
0.163243
0.156842
0.15035
0.143608
0.136519
0.128971
0.120906
0.112277
0.103056
0.0932405
0.0828168
0.071835
0.0603055
0.0482999
0.035864
0.0230921
0.0100703
-0.00311267
-0.0163416
-0.0295354
-0.042562
-0.0553644
-0.0678277
-0.0798941
-0.0914941
-0.10257
-0.113093
-0.123023
-0.132359
-0.141077
-0.149179
-0.156693
-0.163624
-0.169985
-0.175811
-0.181114
-0.185924
-0.190279
-0.19421
-0.197741
-0.200889
-0.20369
-0.206169
-0.208344
-0.210242
-0.21189
-0.213307
-0.214507
-0.215501
-0.216312
-0.216958
-0.21745
-0.217794
-0.218005
-0.218099
-0.218085
-0.217965
-0.217749
-0.217451
-0.217071
-0.216617
-0.216096
-0.215518
-0.214885
-0.214199
-0.213475
-0.212668
-0.211863
-0.211024
-0.210145
-0.209237
-0.208302
-0.207346
-0.206366
-0.205367
-0.204351
-0.203317
-0.202262
0.173316
0.166858
0.160611
0.154439
0.148186
0.141703
0.134896
0.12766
0.119938
0.111687
0.102879
0.0935084
0.0835625
0.0730851
0.0620833
0.0506209
0.0387383
0.0265191
0.0140412
0.00138433
-0.0113456
-0.024075
-0.0366796
-0.0491057
-0.0612437
-0.0730366
-0.084416
-0.095323
-0.105726
-0.115583
-0.124888
-0.133613
-0.141757
-0.14934
-0.156366
-0.162842
-0.168799
-0.174247
-0.179212
-0.183729
-0.187826
-0.191525
-0.194842
-0.197813
-0.200459
-0.202799
-0.20486
-0.206666
-0.208237
-0.209586
-0.210726
-0.211677
-0.212459
-0.213082
-0.213552
-0.213885
-0.214096
-0.214195
-0.214184
-0.214073
-0.213875
-0.213593
-0.213232
-0.212802
-0.21231
-0.211761
-0.211156
-0.210495
-0.209773
-0.20904
-0.208271
-0.207458
-0.206614
-0.205741
-0.204844
-0.203922
-0.202978
-0.202016
-0.201032
-0.200026
0.170345
0.164099
0.158061
0.1521
0.146069
0.139825
0.133277
0.126328
0.118922
0.111017
0.102587
0.0936266
0.0841199
0.074107
0.0635924
0.0526329
0.0412642
0.0295611
0.0175939
0.00543432
-0.00682013
-0.0191025
-0.0312966
-0.0433516
-0.0551635
-0.0666769
-0.0778245
-0.0885473
-0.0988121
-0.108575
-0.117826
-0.126534
-0.134695
-0.142323
-0.149418
-0.155986
-0.162053
-0.167624
-0.172724
-0.177384
-0.181629
-0.185481
-0.188955
-0.192081
-0.194884
-0.197378
-0.199592
-0.201547
-0.203264
-0.204755
-0.206033
-0.207119
-0.208032
-0.208781
-0.209373
-0.209825
-0.210149
-0.210358
-0.210453
-0.210444
-0.210345
-0.210157
-0.209887
-0.209545
-0.209138
-0.208671
-0.208141
-0.207555
-0.206914
-0.206252
-0.205547
-0.204799
-0.204018
-0.203206
-0.202367
-0.201501
-0.200612
-0.199702
-0.198769
-0.197812
0.167481
0.161433
0.15559
0.149826
0.144
0.137976
0.131668
0.124983
0.117868
0.110282
0.1022
0.0936164
0.0845145
0.0749301
0.0648659
0.0543727
0.0434818
0.0322605
0.0207726
0.0090826
-0.00271973
-0.0145736
-0.02637
-0.0380616
-0.0495497
-0.0607805
-0.0716889
-0.0822161
-0.0923277
-0.101979
-0.111156
-0.119827
-0.127982
-0.135633
-0.142777
-0.149415
-0.15557
-0.161246
-0.166461
-0.171246
-0.175625
-0.179615
-0.183229
-0.186499
-0.189446
-0.192085
-0.194441
-0.196536
-0.198392
-0.200018
-0.201428
-0.202643
-0.20368
-0.204551
-0.205261
-0.205826
-0.206261
-0.206576
-0.206774
-0.206864
-0.20686
-0.206765
-0.206584
-0.206328
-0.206004
-0.205616
-0.205164
-0.204655
-0.204086
-0.203492
-0.202852
-0.202168
-0.201449
-0.200697
-0.199916
-0.199106
-0.19827
-0.197412
-0.196529
-0.19562
0.164718
0.158855
0.153194
0.147614
0.141979
0.136159
0.130073
0.123632
0.116785
0.109493
0.101733
0.0934964
0.0847681
0.07558
0.0659328
0.0558723
0.0454261
0.034655
0.0236168
0.0123697
0.000996575
-0.0104474
-0.0218603
-0.0331977
-0.0443664
-0.0553146
-0.0659794
-0.0763028
-0.0862497
-0.0957748
-0.104862
-0.113477
-0.121608
-0.129263
-0.136435
-0.143124
-0.149348
-0.155109
-0.160424
-0.165318
-0.169813
-0.173926
-0.177669
-0.18107
-0.184149
-0.186921
-0.18941
-0.191638
-0.193623
-0.195377
-0.196913
-0.19825
-0.199407
-0.200394
-0.201217
-0.201892
-0.202433
-0.202851
-0.203148
-0.203335
-0.203424
-0.203419
-0.203325
-0.203153
-0.20291
-0.2026
-0.202225
-0.201792
-0.201303
-0.200762
-0.200186
-0.199567
-0.198909
-0.198216
-0.197491
-0.196736