/*--------------------------------*- C++ -*----------------------------------*\
| =========                 |                                                 |
| \\      /  F ield         | OpenFOAM: The Open Source CFD Toolbox           |
|  \\    /   O peration     | Version:  2412                                  |
|   \\  /    A nd           | Website:  www.openfoam.com                      |
|    \\/     M anipulation  |                                                 |
\*---------------------------------------------------------------------------*/
FoamFile
{
    version     2.0;
    format      ascii;
    arch        "LSB;label=32;scalar=64";
    class       volScalarField;
    location    "2";
    object      p;
}
// * * * * * * * * * * * * * * * * * * * * * * * * * * * * * * * * * * * * * //

dimensions      [0 2 -2 0 0 0 0];

internalField   nonuniform List<scalar> 
257400
(
0.484025
0.426814
0.328759
0.224708
0.137373
0.0701247
0.0166667
-0.0259669
-0.0602382
-0.0869198
-0.108479
-0.12679
-0.141123
-0.152948
-0.164024
-0.172452
-0.17986
-0.186246
-0.191788
-0.196753
-0.200715
-0.204024
-0.207202
-0.20942
-0.211675
-0.213341
-0.214766
-0.215867
-0.217002
-0.218018
-0.218336
-0.219214
-0.219555
-0.219449
-0.219522
-0.219531
-0.219469
-0.219379
-0.218984
-0.219125
-0.218707
-0.218083
-0.217939
-0.217198
-0.216431
-0.216026
-0.215513
-0.214732
-0.214183
-0.213487
-0.212603
-0.211973
-0.211263
-0.210384
-0.209241
-0.208326
-0.207803
-0.207404
-0.206439
-0.205014
-0.20428
-0.203581
-0.20237
-0.201431
-0.20083
-0.19981
-0.198326
-0.196991
-0.19607
-0.195425
-0.194473
-0.193326
-0.192372
-0.191489
-0.190241
-0.189019
-0.188098
-0.187496
-0.186699
-0.185518
0.46522
0.432321
0.379197
0.314873
0.244864
0.173202
0.107702
0.0524824
0.00683261
-0.0303813
-0.0606995
-0.0858573
-0.106936
-0.123957
-0.137951
-0.14982
-0.159818
-0.168215
-0.175301
-0.181365
-0.186688
-0.191109
-0.194939
-0.19815
-0.200925
-0.203266
-0.205266
-0.206993
-0.208359
-0.209586
-0.210562
-0.211362
-0.211981
-0.212479
-0.212825
-0.213037
-0.213107
-0.213174
-0.213134
-0.212998
-0.212815
-0.212548
-0.212224
-0.211827
-0.211409
-0.210929
-0.210396
-0.209836
-0.209243
-0.208628
-0.207972
-0.207289
-0.206542
-0.205777
-0.205032
-0.204298
-0.20353
-0.202683
-0.201846
-0.201027
-0.200165
-0.19927
-0.198376
-0.197451
-0.196468
-0.195465
-0.194462
-0.193467
-0.192462
-0.191455
-0.190471
-0.189485
-0.188443
-0.187387
-0.18641
-0.185435
-0.184452
-0.183471
-0.182607
-0.181653
0.436057
0.413841
0.37468
0.321637
0.262603
0.202875
0.144612
0.090672
0.0430268
0.00264259
-0.0305335
-0.058125
-0.0813551
-0.100672
-0.117071
-0.130958
-0.142727
-0.152732
-0.161297
-0.168658
-0.175036
-0.180408
-0.185049
-0.188972
-0.192339
-0.195222
-0.197668
-0.199766
-0.20153
-0.203077
-0.204338
-0.205412
-0.206328
-0.207048
-0.207568
-0.207967
-0.208249
-0.208455
-0.208541
-0.208549
-0.208512
-0.208368
-0.208163
-0.207899
-0.207557
-0.20715
-0.20672
-0.206255
-0.205745
-0.205206
-0.204617
-0.203997
-0.203355
-0.202699
-0.202003
-0.201258
-0.200498
-0.199759
-0.199036
-0.198254
-0.19742
-0.19658
-0.195722
-0.194839
-0.19395
-0.193058
-0.192125
-0.191151
-0.190168
-0.18922
-0.188293
-0.187359
-0.186418
-0.185497
-0.184566
-0.183626
-0.182704
-0.1818
-0.180809
-0.179769
0.406332
0.391795
0.365996
0.329793
0.287014
0.241063
0.191632
0.141416
0.093363
0.04918
0.0104864
-0.0220822
-0.0497542
-0.073035
-0.0924614
-0.108929
-0.122952
-0.134858
-0.145017
-0.153698
-0.161231
-0.167768
-0.173404
-0.178234
-0.182377
-0.185926
-0.188954
-0.191574
-0.193809
-0.19571
-0.197333
-0.19873
-0.199898
-0.200867
-0.201659
-0.202305
-0.202803
-0.203178
-0.203454
-0.203629
-0.203708
-0.203703
-0.203624
-0.20347
-0.203252
-0.202978
-0.202653
-0.202278
-0.201854
-0.201389
-0.200886
-0.200353
-0.199785
-0.199179
-0.198536
-0.197874
-0.197206
-0.196522
-0.195806
-0.195057
-0.194287
-0.193498
-0.192692
-0.19187
-0.191028
-0.190161
-0.189266
-0.188353
-0.187442
-0.18654
-0.185641
-0.18474
-0.18383
-0.182897
-0.181944
-0.180981
-0.180016
-0.179055
-0.178158
-0.177221
0.37836
0.368534
0.350695
0.324599
0.291309
0.252961
0.21231
0.169634
0.126123
0.0839522
0.045141
0.0107945
-0.0192282
-0.0450453
-0.0670177
-0.0858732
-0.102022
-0.115807
-0.127625
-0.137771
-0.146579
-0.154224
-0.160854
-0.166632
-0.171633
-0.175947
-0.179661
-0.182868
-0.185612
-0.187954
-0.189978
-0.191717
-0.193195
-0.194463
-0.195532
-0.196413
-0.197129
-0.197711
-0.198178
-0.198518
-0.198748
-0.198896
-0.198957
-0.198936
-0.198851
-0.198697
-0.198475
-0.198199
-0.197872
-0.197499
-0.197086
-0.196633
-0.196137
-0.195603
-0.195044
-0.194465
-0.193859
-0.193214
-0.192537
-0.191848
-0.191144
-0.190412
-0.189657
-0.188884
-0.188084
-0.187259
-0.186418
-0.185571
-0.184717
-0.183854
-0.18298
-0.182101
-0.181212
-0.180308
-0.179396
-0.178488
-0.177589
-0.176694
-0.175778
-0.174837
0.353105
0.346431
0.334151
0.315705
0.291068
0.261152
0.227686
0.192224
0.154677
0.116082
0.0782911
0.0431751
0.0114175
-0.0166279
-0.040933
-0.0620222
-0.0802423
-0.0959249
-0.109451
-0.121117
-0.131248
-0.140046
-0.147681
-0.154353
-0.160173
-0.165265
-0.169699
-0.173554
-0.176884
-0.179746
-0.182227
-0.184367
-0.186205
-0.187793
-0.189145
-0.190286
-0.191245
-0.192049
-0.192716
-0.193241
-0.193646
-0.193956
-0.194166
-0.194287
-0.194334
-0.194301
-0.194195
-0.194031
-0.193809
-0.193534
-0.193212
-0.192845
-0.192432
-0.191982
-0.191502
-0.190992
-0.190446
-0.189861
-0.189247
-0.188622
-0.187977
-0.187298
-0.186595
-0.185872
-0.185123
-0.184351
-0.183566
-0.182771
-0.181964
-0.18114
-0.180303
-0.179458
-0.178607
-0.177746
-0.176879
-0.176011
-0.17514
-0.174259
-0.173363
-0.172444
0.330506
0.325884
0.317252
0.303993
0.285621
0.262232
0.234725
0.204427
0.17255
0.138935
0.10453
0.0709546
0.039292
0.0103637
-0.0154033
-0.0382037
-0.0581867
-0.0755821
-0.0907122
-0.103846
-0.115302
-0.12529
-0.133986
-0.141603
-0.148268
-0.154109
-0.159228
-0.163729
-0.167665
-0.171082
-0.174068
-0.176661
-0.1789
-0.180845
-0.182519
-0.183951
-0.185175
-0.186216
-0.187101
-0.187827
-0.188417
-0.188898
-0.189267
-0.189536
-0.189721
-0.18982
-0.189839
-0.189792
-0.189679
-0.189506
-0.189281
-0.189007
-0.188683
-0.188317
-0.187913
-0.187476
-0.187001
-0.186486
-0.185939
-0.185375
-0.184786
-0.184163
-0.183516
-0.182848
-0.182153
-0.181434
-0.1807
-0.179953
-0.179192
-0.178413
-0.177618
-0.176814
-0.176002
-0.17518
-0.174349
-0.173512
-0.172668
-0.171813
-0.170946
-0.170055
0.310374
0.307149
0.301046
0.291478
0.27781
0.25975
0.237619
0.212212
0.184724
0.155765
0.125335
0.0943915
0.0640168
0.0352565
0.00885283
-0.0150487
-0.036369
-0.0551947
-0.0717523
-0.0862524
-0.0989816
-0.110141
-0.1199
-0.128478
-0.136005
-0.142624
-0.148449
-0.153586
-0.158097
-0.162054
-0.165551
-0.168613
-0.171283
-0.173622
-0.175653
-0.177407
-0.178919
-0.180221
-0.181343
-0.182286
-0.183074
-0.183737
-0.184275
-0.184701
-0.185034
-0.185272
-0.185421
-0.185495
-0.185497
-0.185431
-0.185309
-0.185132
-0.184899
-0.184619
-0.184297
-0.183938
-0.183539
-0.183095
-0.182615
-0.182113
-0.181585
-0.181022
-0.180433
-0.179821
-0.179181
-0.178515
-0.17783
-0.177133
-0.17642
-0.175687
-0.174936
-0.174174
-0.173401
-0.172616
-0.17182
-0.171017
-0.170207
-0.169384
-0.168543
-0.16768
0.292391
0.290121
0.285762
0.278785
0.268543
0.254577
0.236873
0.215785
0.192135
0.166847
0.140285
0.112626
0.0845468
0.057014
0.0309137
0.00666447
-0.0154311
-0.0352835
-0.0529873
-0.068663
-0.0825404
-0.0947926
-0.105572
-0.11509
-0.123479
-0.130885
-0.137423
-0.143207
-0.14831
-0.152807
-0.156797
-0.160313
-0.163413
-0.166154
-0.168557
-0.170652
-0.172477
-0.174064
-0.175444
-0.176621
-0.177623
-0.178483
-0.179201
-0.179795
-0.180284
-0.180666
-0.18095
-0.181151
-0.181273
-0.18132
-0.181305
-0.181227
-0.18109
-0.180899
-0.180663
-0.180386
-0.180064
-0.179693
-0.179282
-0.178847
-0.178383
-0.177882
-0.177352
-0.176798
-0.176212
-0.175599
-0.174967
-0.17432
-0.173655
-0.172968
-0.172262
-0.171541
-0.170808
-0.17006
-0.169301
-0.168534
-0.167757
-0.166966
-0.166155
-0.165321
0.27628
0.274683
0.271563
0.266447
0.258731
0.247904
0.233779
0.216424
0.196342
0.174229
0.150829
0.126349
0.10097
0.0753401
0.0502912
0.0263887
0.004102
-0.0163142
-0.0348134
-0.0514083
-0.0662511
-0.0794692
-0.091184
-0.10159
-0.110809
-0.118982
-0.126227
-0.13266
-0.13836
-0.143402
-0.14789
-0.151867
-0.155389
-0.158519
-0.161285
-0.163724
-0.16587
-0.167753
-0.169407
-0.170835
-0.172066
-0.173138
-0.174049
-0.174821
-0.175474
-0.176009
-0.176435
-0.176769
-0.177015
-0.17718
-0.177275
-0.177301
-0.177262
-0.177165
-0.177018
-0.176825
-0.176582
-0.176286
-0.175948
-0.175582
-0.175184
-0.174746
-0.174277
-0.17378
-0.173251
-0.172692
-0.172112
-0.171516
-0.1709
-0.17026
-0.169598
-0.16892
-0.168228
-0.167519
-0.166797
-0.166066
-0.165323
-0.164564
-0.163785
-0.16298
0.261778
0.260659
0.258426
0.254656
0.248802
0.240362
0.229071
0.214821
0.197886
0.178738
0.157978
0.136219
0.113522
0.0901393
0.0666796
0.0437131
0.0217896
0.00128814
-0.0176163
-0.0348253
-0.0504014
-0.064413
-0.0769384
-0.0881432
-0.0981286
-0.107028
-0.114956
-0.122022
-0.128308
-0.133892
-0.138881
-0.143318
-0.147264
-0.150786
-0.153915
-0.15669
-0.159149
-0.161327
-0.163257
-0.164942
-0.166414
-0.167707
-0.168823
-0.169782
-0.170609
-0.171305
-0.171881
-0.172354
-0.17273
-0.173017
-0.173226
-0.17336
-0.173423
-0.173422
-0.173366
-0.173259
-0.173098
-0.17288
-0.172616
-0.172321
-0.171991
-0.171617
-0.17121
-0.170773
-0.170301
-0.169797
-0.169271
-0.168726
-0.168159
-0.167566
-0.166949
-0.166315
-0.165664
-0.164995
-0.164311
-0.163616
-0.162907
-0.162181
-0.161434
-0.16066
0.248669
0.247895
0.24631
0.243528
0.239061
0.232443
0.22338
0.211672
0.197432
0.180961
0.16269
0.143176
0.122838
0.101709
0.0801061
0.058481
0.0373704
0.0172169
-0.00170822
-0.0192088
-0.0352575
-0.0498575
-0.0630362
-0.0749205
-0.0855854
-0.095148
-0.103711
-0.111378
-0.118228
-0.124341
-0.129821
-0.134714
-0.139081
-0.142995
-0.146487
-0.149598
-0.152371
-0.154838
-0.157039
-0.158978
-0.16069
-0.162208
-0.163533
-0.164688
-0.165697
-0.166561
-0.167293
-0.167911
-0.168423
-0.168836
-0.169164
-0.169409
-0.169577
-0.169674
-0.169712
-0.169693
-0.169616
-0.169479
-0.169291
-0.169068
-0.168807
-0.168499
-0.168155
-0.167779
-0.167365
-0.166918
-0.166445
-0.165952
-0.165434
-0.164889
-0.164317
-0.163727
-0.163118
-0.162489
-0.161844
-0.161185
-0.160512
-0.159818
-0.159104
-0.158361
0.236764
0.236242
0.235132
0.233083
0.229659
0.224434
0.21712
0.207469
0.195494
0.181368
0.165378
0.147959
0.129579
0.110491
0.0907828
0.0707173
0.0507379
0.0312858
0.0126852
-0.00479563
-0.0210493
-0.0360159
-0.049669
-0.0620912
-0.0733255
-0.0834664
-0.0926004
-0.10082
-0.1082
-0.114815
-0.120768
-0.126104
-0.130884
-0.135183
-0.139035
-0.142481
-0.145564
-0.148322
-0.150792
-0.152984
-0.154931
-0.15667
-0.158203
-0.159555
-0.160748
-0.161785
-0.162678
-0.163447
-0.164099
-0.164642
-0.165093
-0.165453
-0.165728
-0.165928
-0.166061
-0.166133
-0.166142
-0.166086
-0.165975
-0.165827
-0.165635
-0.165395
-0.165115
-0.1648
-0.164446
-0.164055
-0.163637
-0.163195
-0.162728
-0.16223
-0.161705
-0.161159
-0.160592
-0.160004
-0.159398
-0.158777
-0.15814
-0.157482
-0.156796
-0.156083
0.225905
0.22557
0.224814
0.223314
0.220681
0.21653
0.210589
0.202596
0.192503
0.180393
0.166441
0.150969
0.134375
0.11702
0.0990684
0.0806088
0.0619383
0.0434383
0.0254409
0.00825463
-0.00795166
-0.0230635
-0.0370036
-0.0498086
-0.0614868
-0.0721058
-0.0817322
-0.0904435
-0.0983054
-0.105386
-0.111784
-0.117541
-0.122719
-0.127392
-0.131594
-0.135368
-0.138759
-0.141804
-0.144542
-0.146984
-0.149166
-0.151125
-0.152864
-0.154409
-0.155784
-0.156992
-0.158047
-0.158969
-0.159764
-0.160442
-0.161018
-0.161496
-0.161882
-0.162186
-0.162417
-0.162582
-0.162678
-0.162705
-0.162674
-0.1626
-0.16248
-0.162307
-0.162093
-0.16184
-0.161545
-0.161211
-0.160848
-0.160459
-0.160042
-0.159593
-0.159114
-0.158612
-0.158088
-0.157541
-0.156973
-0.15639
-0.155789
-0.155164
-0.154512
-0.153831
0.215962
0.215764
0.215273
0.214189
0.21216
0.208843
0.203985
0.197327
0.188786
0.178388
0.166224
0.152522
0.137604
0.121784
0.10537
0.0884326
0.0711236
0.0537232
0.03653
0.0198603
0.00392191
-0.0111295
-0.0251734
-0.0382027
-0.0501915
-0.0611782
-0.0712069
-0.0803369
-0.0886226
-0.0961233
-0.102929
-0.109079
-0.114633
-0.119662
-0.124202
-0.128294
-0.131985
-0.13531
-0.138311
-0.141001
-0.143415
-0.145591
-0.147534
-0.149271
-0.150826
-0.152204
-0.153419
-0.154492
-0.15543
-0.156243
-0.156947
-0.157545
-0.158044
-0.158453
-0.158785
-0.159043
-0.159229
-0.15934
-0.159389
-0.159391
-0.159343
-0.159239
-0.15909
-0.158901
-0.158666
-0.158389
-0.158081
-0.157745
-0.157379
-0.156978
-0.156545
-0.156088
-0.155607
-0.155101
-0.154573
-0.154027
-0.153461
-0.152871
-0.152252
-0.151603
0.206821
0.206726
0.206435
0.205667
0.204105
0.201439
0.197439
0.191858
0.184595
0.175639
0.165023
0.152901
0.139527
0.125152
0.110078
0.0945079
0.0785153
0.0622689
0.046003
0.0300121
0.0145198
-0.000292816
-0.0142723
-0.0273737
-0.0395398
-0.0507798
-0.0611143
-0.070583
-0.0792266
-0.0870935
-0.0942643
-0.100772
-0.106673
-0.112036
-0.116894
-0.121291
-0.125269
-0.128866
-0.132124
-0.135056
-0.137697
-0.140087
-0.142231
-0.144158
-0.145891
-0.147436
-0.14881
-0.150032
-0.151111
-0.152058
-0.152888
-0.153606
-0.154219
-0.154735
-0.155168
-0.155522
-0.155798
-0.155995
-0.156124
-0.156203
-0.156228
-0.156194
-0.156111
-0.155984
-0.15581
-0.155591
-0.155339
-0.155055
-0.154739
-0.154387
-0.154001
-0.153589
-0.15315
-0.152685
-0.152197
-0.151688
-0.151159
-0.150603
-0.150018
-0.149401
0.198388
0.19837
0.19823
0.197705
0.196505
0.194351
0.191035
0.186327
0.180116
0.17237
0.163083
0.152352
0.140375
0.127347
0.113524
0.0991484
0.0843647
0.0692528
0.0539679
0.0387593
0.0238448
0.00941546
-0.00435433
-0.0173896
-0.0296064
-0.0409872
-0.0515296
-0.0612532
-0.0701838
-0.0783577
-0.0858441
-0.0926693
-0.0988844
-0.104553
-0.109709
-0.114391
-0.118642
-0.122498
-0.126002
-0.129168
-0.132031
-0.134629
-0.136971
-0.139082
-0.140991
-0.142702
-0.144232
-0.145601
-0.14682
-0.147899
-0.148854
-0.14969
-0.150415
-0.151038
-0.151572
-0.152022
-0.152388
-0.152672
-0.152883
-0.153039
-0.153137
-0.153173
-0.153156
-0.153093
-0.152979
-0.152819
-0.152621
-0.152391
-0.152126
-0.151822
-0.151483
-0.151115
-0.15072
-0.150295
-0.149846
-0.149376
-0.148882
-0.148361
-0.14781
-0.147225
0.190584
0.190623
0.190597
0.190258
0.189341
0.187593
0.184826
0.180826
0.175484
0.168753
0.160602
0.151086
0.140357
0.128563
0.115916
0.102634
0.088925
0.074876
0.0605692
0.0461937
0.0319439
0.018006
0.00456396
-0.00828602
-0.0204393
-0.0318553
-0.0425107
-0.0524053
-0.0615504
-0.0699691
-0.0777181
-0.0848161
-0.091308
-0.097252
-0.102678
-0.107624
-0.11213
-0.116232
-0.11997
-0.123359
-0.126434
-0.129234
-0.131767
-0.134059
-0.136139
-0.138012
-0.139695
-0.14121
-0.142566
-0.143775
-0.144853
-0.145806
-0.146641
-0.14737
-0.148004
-0.148549
-0.149006
-0.149375
-0.149668
-0.149902
-0.150074
-0.150179
-0.150229
-0.150229
-0.150176
-0.150074
-0.149932
-0.149754
-0.14954
-0.149284
-0.148992
-0.148668
-0.148316
-0.147932
-0.147522
-0.147089
-0.146632
-0.146146
-0.145628
-0.145075
0.183338
0.183419
0.183479
0.183284
0.182589
0.181165
0.178841
0.175421
0.170797
0.164918
0.157735
0.149274
0.139652
0.128975
0.117417
0.105168
0.0924251
0.0793418
0.0659686
0.0524337
0.0388953
0.0255225
0.0124978
-6.9708e-05
-0.0120613
-0.0234177
-0.0340975
-0.044083
-0.0533709
-0.0619714
-0.0699284
-0.0772524
-0.0839809
-0.0901661
-0.0958343
-0.10102
-0.105761
-0.110089
-0.114047
-0.117647
-0.120925
-0.123918
-0.126634
-0.129102
-0.131347
-0.133378
-0.135211
-0.136867
-0.138358
-0.139694
-0.140893
-0.141961
-0.142905
-0.143738
-0.14447
-0.145109
-0.145655
-0.146109
-0.146484
-0.146794
-0.14704
-0.147215
-0.147332
-0.147395
-0.147402
-0.147358
-0.147271
-0.147146
-0.146982
-0.146775
-0.146529
-0.14625
-0.145939
-0.145597
-0.145226
-0.144831
-0.144409
-0.143958
-0.143473
-0.142952
0.176592
0.176705
0.176829
0.176745
0.176225
0.175061
0.173097
0.170152
0.166125
0.160962
0.154605
0.147058
0.13841
0.128736
0.118176
0.106891
0.0950565
0.082839
0.0703301
0.0576108
0.0447971
0.032032
0.0194873
0.00727701
-0.00447239
-0.0156875
-0.0263127
-0.0363147
-0.0456773
-0.0543984
-0.0625089
-0.0700112
-0.0769349
-0.0833254
-0.0892047
-0.0946034
-0.0995561
-0.104093
-0.108254
-0.112052
-0.115519
-0.118695
-0.121586
-0.124221
-0.126627
-0.12881
-0.130787
-0.132582
-0.134203
-0.135664
-0.136981
-0.138162
-0.139213
-0.140147
-0.140976
-0.141707
-0.14234
-0.142879
-0.143333
-0.14372
-0.144038
-0.144283
-0.144466
-0.144592
-0.14466
-0.144673
-0.144641
-0.144569
-0.144454
-0.144295
-0.144095
-0.14386
-0.143592
-0.14329
-0.142958
-0.1426
-0.142214
-0.141797
-0.141346
-0.140857
0.170294
0.17043
0.170603
0.170604
0.170223
0.169268
0.167597
0.165046
0.161517
0.156957
0.151305
0.144548
0.136755
0.127976
0.118323
0.10793
0.0969498
0.0855344
0.0738101
0.0618586
0.0497571
0.0376165
0.0255904
0.0137907
0.00234626
-0.00866042
-0.0191628
-0.0291149
-0.0384896
-0.0472732
-0.0554847
-0.0631183
-0.0701956
-0.0767548
-0.0828133
-0.0883974
-0.0935381
-0.098263
-0.102609
-0.106588
-0.110233
-0.11358
-0.116637
-0.119431
-0.121988
-0.124317
-0.126434
-0.128361
-0.13011
-0.131691
-0.133124
-0.134414
-0.13557
-0.136604
-0.137527
-0.138348
-0.139068
-0.139688
-0.140221
-0.140683
-0.141073
-0.141386
-0.141634
-0.141823
-0.14195
-0.14202
-0.142043
-0.142023
-0.141958
-0.141847
-0.141692
-0.141501
-0.141275
-0.141013
-0.14072
-0.140398
-0.140048
-0.139665
-0.139247
-0.13879
0.164401
0.164553
0.164761
0.164828
0.164556
0.163771
0.162341
0.160116
0.157005
0.152956
0.147906
0.141834
0.13479
0.126806
0.117971
0.108397
0.0982135
0.0875556
0.0765483
0.0653059
0.0538852
0.0423651
0.0308759
0.0195214
0.00842776
-0.00231751
-0.0126406
-0.0224857
-0.0318165
-0.0406095
-0.0488725
-0.0565922
-0.0637824
-0.0704739
-0.0766794
-0.0824205
-0.0877242
-0.092615
-0.097127
-0.101272
-0.10508
-0.108585
-0.111796
-0.11474
-0.117441
-0.119909
-0.122159
-0.124214
-0.126084
-0.127783
-0.129326
-0.130723
-0.131981
-0.133111
-0.134127
-0.135036
-0.13584
-0.136541
-0.137151
-0.137687
-0.138146
-0.138526
-0.138839
-0.139089
-0.139276
-0.139402
-0.139479
-0.13951
-0.139494
-0.13943
-0.13932
-0.139172
-0.138988
-0.138766
-0.138511
-0.138226
-0.137911
-0.137562
-0.137176
-0.13675
0.158874
0.159037
0.15927
0.159387
0.159203
0.158555
0.157324
0.155371
0.152611
0.148997
0.144463
0.138983
0.132595
0.125317
0.117217
0.108389
0.0989436
0.0889973
0.0786642
0.0680703
0.0572877
0.0463688
0.0354183
0.0245274
0.0138155
0.00337114
-0.00672758
-0.0164179
-0.0256565
-0.0344115
-0.0426808
-0.0504445
-0.0577087
-0.0644973
-0.0708179
-0.0766876
-0.0821291
-0.0871635
-0.0918221
-0.0961153
-0.10007
-0.103722
-0.107076
-0.110158
-0.112995
-0.115593
-0.117969
-0.120146
-0.122133
-0.123943
-0.125594
-0.127094
-0.12845
-0.129674
-0.13078
-0.131775
-0.132661
-0.133441
-0.134126
-0.134733
-0.135261
-0.135707
-0.136082
-0.136393
-0.136637
-0.136819
-0.136949
-0.137031
-0.137064
-0.137046
-0.136981
-0.136876
-0.136732
-0.13655
-0.136332
-0.136083
-0.135803
-0.135487
-0.135134
-0.13474
0.153678
0.153849
0.1541
0.154254
0.154139
0.153603
0.152537
0.150812
0.14835
0.145106
0.141017
0.136051
0.130238
0.123585
0.116144
0.107993
0.099226
0.0899434
0.0802472
0.070256
0.0600636
0.0497159
0.0392933
0.0288714
0.0185591
0.00844323
-0.00139696
-0.0108942
-0.0199999
-0.0286757
-0.036911
-0.0446801
-0.0519821
-0.0588343
-0.0652394
-0.0712099
-0.0767642
-0.0819199
-0.0867052
-0.0911288
-0.0952161
-0.0989988
-0.102483
-0.105695
-0.108656
-0.111377
-0.113873
-0.116164
-0.118262
-0.120179
-0.121933
-0.123531
-0.124981
-0.126296
-0.127489
-0.128567
-0.129533
-0.130389
-0.131148
-0.131825
-0.13242
-0.13293
-0.133367
-0.133737
-0.134037
-0.134273
-0.134455
-0.134587
-0.134668
-0.134695
-0.134674
-0.134612
-0.134508
-0.134364
-0.134184
-0.133971
-0.133725
-0.133442
-0.133121
-0.132757
0.148786
0.14896
0.149223
0.149405
0.149344
0.1489
0.14797
0.146438
0.144229
0.141303
0.137597
0.133079
0.12777
0.12167
0.114818
0.107281
0.0991353
0.0904683
0.0813703
0.0719489
0.0623017
0.0524895
0.0425748
0.0326168
0.0227117
0.0129414
0.00338422
-0.00589022
-0.01483
-0.0233919
-0.0315582
-0.0392981
-0.046605
-0.0534895
-0.0599502
-0.0659948
-0.0716377
-0.0768926
-0.0817848
-0.0863212
-0.0905246
-0.0944248
-0.0980276
-0.101356
-0.104433
-0.107268
-0.109874
-0.112273
-0.114476
-0.116494
-0.118346
-0.120038
-0.121579
-0.122981
-0.124258
-0.125416
-0.126459
-0.12739
-0.128219
-0.128964
-0.129624
-0.130197
-0.130694
-0.131121
-0.131477
-0.131766
-0.131999
-0.13218
-0.132307
-0.13238
-0.132402
-0.13238
-0.132317
-0.132211
-0.132068
-0.13189
-0.131677
-0.131427
-0.131137
-0.130804
0.144169
0.144345
0.144615
0.144817
0.144799
0.144429
0.143614
0.142245
0.140253
0.137599
0.134225
0.130097
0.125232
0.119622
0.113298
0.106314
0.0987363
0.0906379
0.0820984
0.0732153
0.0640801
0.0547655
0.0453327
0.0358258
0.0263268
0.0169106
0.0076526
-0.00137725
-0.0101253
-0.0185446
-0.0266121
-0.0342929
-0.041575
-0.0484635
-0.0549528
-0.0610463
-0.0667545
-0.0720875
-0.0770672
-0.0816988
-0.0860026
-0.090006
-0.0937141
-0.0971485
-0.100331
-0.10327
-0.105979
-0.108479
-0.110779
-0.112893
-0.114837
-0.116619
-0.118246
-0.119732
-0.121089
-0.122324
-0.123441
-0.124444
-0.125342
-0.126153
-0.126876
-0.127509
-0.128065
-0.128548
-0.128958
-0.129299
-0.129581
-0.12981
-0.129983
-0.130099
-0.130164
-0.130183
-0.130159
-0.13009
-0.129983
-0.129839
-0.12966
-0.129442
-0.129183
-0.128879
0.139805
0.139981
0.140254
0.14047
0.140486
0.140177
0.139458
0.138227
0.136421
0.134003
0.130918
0.127131
0.122656
0.117481
0.111629
0.105145
0.0980846
0.0905094
0.0824896
0.0741123
0.0654623
0.0566115
0.0476316
0.0385575
0.029457
0.0203965
0.0114467
0.00267637
-0.0058604
-0.0141146
-0.0220585
-0.0296544
-0.0368858
-0.0437528
-0.0502462
-0.0563654
-0.0621169
-0.0675076
-0.0725562
-0.077266
-0.0816545
-0.0857472
-0.0895478
-0.0930766
-0.0963543
-0.0993882
-0.102192
-0.104784
-0.107176
-0.10938
-0.11141
-0.113276
-0.114986
-0.116551
-0.117984
-0.119294
-0.120482
-0.121553
-0.122518
-0.123392
-0.124176
-0.124869
-0.125481
-0.126019
-0.126481
-0.126872
-0.127203
-0.127478
-0.127695
-0.127855
-0.127961
-0.12802
-0.128034
-0.128002
-0.12793
-0.12782
-0.127673
-0.127487
-0.127258
-0.126984
0.135674
0.135849
0.136121
0.136347
0.136388
0.13613
0.135492
0.134379
0.132732
0.130518
0.127685
0.124199
0.120068
0.11528
0.109851
0.103818
0.0972276
0.0901329
0.0825948
0.074691
0.0664993
0.0580867
0.0495302
0.0408669
0.0321526
0.0234439
0.0148055
0.00630379
-0.00200791
-0.0100794
-0.0178799
-0.0253694
-0.0325279
-0.0393511
-0.0458265
-0.05195
-0.0577246
-0.063154
-0.0682538
-0.0730252
-0.0774834
-0.0816515
-0.0855321
-0.0891438
-0.0925062
-0.0956258
-0.0985152
-0.101193
-0.10367
-0.105956
-0.108068
-0.110014
-0.111801
-0.113441
-0.114947
-0.116327
-0.117583
-0.11872
-0.119749
-0.120684
-0.121527
-0.122276
-0.122943
-0.123534
-0.124047
-0.124487
-0.124865
-0.125185
-0.125446
-0.125647
-0.125794
-0.125892
-0.125943
-0.125947
-0.125909
-0.125833
-0.125718
-0.125562
-0.125363
-0.125118
0.131756
0.131928
0.132199
0.13243
0.132491
0.132274
0.131703
0.130692
0.129183
0.127148
0.124535
0.121313
0.117488
0.113045
0.107994
0.102368
0.0962054
0.0895511
0.0824585
0.0749968
0.0672365
0.0592396
0.0510804
0.0428046
0.0344606
0.0260956
0.0177673
0.00953841
0.00146077
-0.0064154
-0.0140569
-0.0214225
-0.0284892
-0.0352491
-0.0416871
-0.0477958
-0.0535751
-0.0590255
-0.0641597
-0.0689773
-0.0734908
-0.0777209
-0.0816692
-0.0853527
-0.0887895
-0.0919854
-0.0949523
-0.0977081
-0.100262
-0.102625
-0.104813
-0.106832
-0.108692
-0.110403
-0.111978
-0.113424
-0.114746
-0.115946
-0.117035
-0.11803
-0.118929
-0.119733
-0.120453
-0.121094
-0.121656
-0.122144
-0.122568
-0.122931
-0.123235
-0.123477
-0.123663
-0.123798
-0.123886
-0.123925
-0.123921
-0.123877
-0.123793
-0.123667
-0.123497
-0.123281
0.128036
0.128205
0.128472
0.128705
0.128781
0.128597
0.128084
0.127159
0.125771
0.123891
0.121473
0.118484
0.11493
0.110794
0.106084
0.100825
0.0950518
0.0888011
0.0821197
0.0750693
0.067714
0.0601103
0.0523277
0.0444161
0.0364244
0.0283918
0.0203687
0.0124131
0.00457445
-0.00309765
-0.0105685
-0.0177963
-0.0247558
-0.031436
-0.0378196
-0.0438965
-0.0496637
-0.055119
-0.0602723
-0.0651214
-0.0696764
-0.0739558
-0.0779601
-0.0817044
-0.0852057
-0.0884688
-0.0915048
-0.0943305
-0.096955
-0.0993886
-0.101646
-0.103734
-0.105662
-0.107439
-0.109079
-0.110589
-0.111972
-0.113232
-0.114379
-0.11543
-0.116384
-0.11724
-0.118011
-0.118701
-0.119311
-0.119844
-0.120312
-0.120718
-0.121062
-0.121344
-0.121568
-0.12174
-0.121863
-0.121937
-0.121965
-0.121953
-0.1219
-0.121803
-0.121662
-0.121473
0.124498
0.124664
0.124925
0.125158
0.125244
0.125089
0.124624
0.123774
0.12249
0.120747
0.1185
0.115718
0.112406
0.108545
0.10414
0.0992147
0.0937952
0.087914
0.081612
0.0749438
0.0679676
0.0607348
0.0533099
0.0457418
0.0380838
0.0303703
0.0226446
0.0149595
0.00736145
-0.000101285
-0.00739327
-0.0144725
-0.0213123
-0.0278992
-0.0342139
-0.0402441
-0.0459844
-0.05143
-0.0565882
-0.0614553
-0.0660391
-0.0703557
-0.0744046
-0.0781994
-0.0817553
-0.0850767
-0.0881736
-0.0910618
-0.0937499
-0.0962474
-0.0985686
-0.10072
-0.102711
-0.104551
-0.106251
-0.10782
-0.109261
-0.110578
-0.111781
-0.112885
-0.113891
-0.114798
-0.115617
-0.116355
-0.11701
-0.117588
-0.118098
-0.118545
-0.118929
-0.119249
-0.11951
-0.119717
-0.119875
-0.119982
-0.120043
-0.120061
-0.120037
-0.11997
-0.119856
-0.119694
0.12113
0.121291
0.121547
0.121777
0.121871
0.121737
0.121314
0.120529
0.119337
0.117714
0.115618
0.113021
0.109924
0.10631
0.102181
0.0975565
0.0924593
0.0869167
0.0809642
0.0746507
0.0680288
0.0611451
0.0540592
0.0468173
0.0394743
0.0320653
0.0246273
0.0172076
0.00984915
0.00259823
-0.00450953
-0.0114325
-0.0181428
-0.0246251
-0.0308588
-0.0368296
-0.0425298
-0.0479527
-0.0531031
-0.0579757
-0.0625763
-0.066919
-0.0710019
-0.074837
-0.0784384
-0.0818094
-0.0849591
-0.0879024
-0.0906472
-0.0932025
-0.0955819
-0.0977921
-0.0998407
-0.101738
-0.103495
-0.10512
-0.106616
-0.107986
-0.109241
-0.110396
-0.111451
-0.112406
-0.113272
-0.114055
-0.114754
-0.115375
-0.115926
-0.116412
-0.116834
-0.117192
-0.117488
-0.117731
-0.117921
-0.118061
-0.118152
-0.118201
-0.118206
-0.118166
-0.11808
-0.117944
0.11792
0.118076
0.118324
0.118551
0.118649
0.118534
0.118145
0.117417
0.116305
0.114788
0.112828
0.110394
0.10749
0.104099
0.100219
0.0958673
0.0910639
0.0858315
0.0802013
0.0742167
0.0679253
0.0613696
0.0546043
0.0476727
0.0406279
0.0335083
0.0263469
0.0191857
0.0120636
0.00502462
-0.00189597
-0.00865725
-0.0152307
-0.0215996
-0.0277422
-0.0336427
-0.0392916
-0.0446803
-0.0498113
-0.0546783
-0.0592848
-0.0636429
-0.0677498
-0.071616
-0.0752539
-0.0786662
-0.0818611
-0.0848523
-0.0876472
-0.0902541
-0.092686
-0.0949493
-0.0970512
-0.0990015
-0.100811
-0.102488
-0.104035
-0.105456
-0.106761
-0.107964
-0.109066
-0.110066
-0.110977
-0.111803
-0.112544
-0.113205
-0.113796
-0.114321
-0.11478
-0.115172
-0.115504
-0.11578
-0.116003
-0.116173
-0.116295
-0.116373
-0.116406
-0.116393
-0.116334
-0.116224
0.114855
0.115006
0.115248
0.115469
0.11557
0.115469
0.11511
0.114431
0.11339
0.111967
0.110127
0.10784
0.10511
0.101918
0.0982639
0.0941608
0.0896256
0.0846777
0.0793445
0.0736647
0.0676816
0.0614335
0.0549708
0.0483339
0.0415728
0.0347276
0.0278309
0.0209199
0.0140293
0.00720055
0.000468055
-0.00612828
-0.0125597
-0.0188083
-0.0248517
-0.0306728
-0.0362607
-0.0416051
-0.0467067
-0.0515578
-0.0561602
-0.0605241
-0.0646458
-0.0685341
-0.0722002
-0.0756461
-0.0788787
-0.081911
-0.0847495
-0.0874021
-0.089881
-0.0921922
-0.0943427
-0.0963417
-0.0982001
-0.0999251
-0.10152
-0.102988
-0.104339
-0.105588
-0.106734
-0.107778
-0.108731
-0.109598
-0.110379
-0.11108
-0.111708
-0.11227
-0.112764
-0.113191
-0.113556
-0.113864
-0.114119
-0.114319
-0.114471
-0.114576
-0.114637
-0.114651
-0.114617
-0.114532
0.111927
0.112073
0.112307
0.112523
0.112624
0.112535
0.112201
0.111564
0.110586
0.109248
0.107514
0.10536
0.102786
0.0997752
0.0963251
0.0924481
0.0881579
0.0834712
0.0784119
0.0730147
0.0673189
0.0613591
0.0551816
0.0488239
0.0423332
0.0357485
0.0291043
0.0224343
0.0157692
0.00914745
0.00260233
-0.00382753
-0.0101134
-0.0162366
-0.0221745
-0.0279089
-0.0334276
-0.038719
-0.0437822
-0.0486084
-0.0531978
-0.0575587
-0.0616866
-0.0655889
-0.0692754
-0.0727472
-0.0760106
-0.0790773
-0.0819533
-0.0846458
-0.0871664
-0.0895206
-0.0917149
-0.0937585
-0.0956614
-0.0974309
-0.0990701
-0.100582
-0.101977
-0.103268
-0.104456
-0.105542
-0.106535
-0.107441
-0.10826
-0.108998
-0.109663
-0.110259
-0.110788
-0.111248
-0.111645
-0.111985
-0.112269
-0.112499
-0.112679
-0.112812
-0.112899
-0.112938
-0.112929
-0.112869
0.109127
0.109268
0.109494
0.109703
0.109804
0.109723
0.109411
0.108811
0.107889
0.106625
0.104988
0.102953
0.10052
0.0976732
0.0944089
0.090738
0.0866722
0.0822255
0.0774191
0.0722839
0.0668557
0.0611658
0.0552568
0.0491636
0.0429301
0.0365936
0.0301897
0.023751
0.0173044
0.0108854
0.0045256
-0.0017377
-0.00787613
-0.0138705
-0.0196979
-0.0253396
-0.0307823
-0.0360135
-0.0410305
-0.0458238
-0.0503921
-0.0547422
-0.0588684
-0.0627771
-0.0664766
-0.0699675
-0.073255
-0.0763499
-0.0792575
-0.0819844
-0.0845414
-0.0869337
-0.0891675
-0.0912513
-0.093195
-0.0950054
-0.0966855
-0.0982388
-0.0996741
-0.101005
-0.102233
-0.103357
-0.104388
-0.105331
-0.106187
-0.10696
-0.10766
-0.10829
-0.108851
-0.109343
-0.109771
-0.11014
-0.110454
-0.110712
-0.110919
-0.111079
-0.111191
-0.111256
-0.111271
-0.111234
0.106446
0.106582
0.106799
0.107001
0.107101
0.107027
0.106733
0.106166
0.105293
0.104097
0.102546
0.100618
0.0983132
0.0956153
0.0925204
0.0890379
0.0851779
0.080952
0.0763791
0.071487
0.0663081
0.0608709
0.0552146
0.0493714
0.0433823
0.0372827
0.0311076
0.0248902
0.0186546
0.012433
0.00625549
0.000157653
-0.00583265
-0.011696
-0.0174094
-0.0229538
-0.0283151
-0.0334797
-0.038444
-0.0431975
-0.0477376
-0.0520695
-0.0561871
-0.0600951
-0.063801
-0.0673045
-0.0706098
-0.073727
-0.0766606
-0.0794166
-0.0820051
-0.0844309
-0.0866997
-0.0888197
-0.0908002
-0.092648