/*--------------------------------*- C++ -*----------------------------------*\
| =========                 |                                                 |
| \\      /  F ield         | OpenFOAM: The Open Source CFD Toolbox           |
|  \\    /   O peration     | Version:  2412                                  |
|   \\  /    A nd           | Website:  www.openfoam.com                      |
|    \\/     M anipulation  |                                                 |
\*---------------------------------------------------------------------------*/
FoamFile
{
    version     2.0;
    format      ascii;
    arch        "LSB;label=32;scalar=64";
    class       volScalarField;
    location    "1";
    object      p;
}
// * * * * * * * * * * * * * * * * * * * * * * * * * * * * * * * * * * * * * //

dimensions      [0 2 -2 0 0 0 0];

internalField   nonuniform List<scalar> 
257400
(
0.292167
0.120134
-0.0394601
-0.170846
-0.271658
-0.343957
-0.393559
-0.424807
-0.444939
-0.45761
-0.464706
-0.468377
-0.469078
-0.468733
-0.466114
-0.463377
-0.459259
-0.455417
-0.451269
-0.44688
-0.442422
-0.437886
-0.433743
-0.429174
-0.424957
-0.420509
-0.416251
-0.412044
-0.407756
-0.403753
-0.399573
-0.395737
-0.391945
-0.388013
-0.384158
-0.380442
-0.376626
-0.373023
-0.369499
-0.365985
-0.362434
-0.358884
-0.355501
-0.352094
-0.348734
-0.345516
-0.342354
-0.339188
-0.335981
-0.332834
-0.329808
-0.326812
-0.323785
-0.320777
-0.317887
-0.315026
-0.312161
-0.309263
-0.306483
-0.303738
-0.300949
-0.298248
-0.295608
-0.292995
-0.290361
-0.28773
-0.285193
-0.282616
-0.280214
-0.277659
-0.275235
-0.272843
-0.270418
-0.268058
-0.265678
-0.26337
-0.26106
-0.25879
-0.256566
-0.254361
0.299613
0.17474
0.0421089
-0.0790171
-0.184363
-0.269769
-0.33523
-0.381359
-0.413262
-0.434739
-0.448326
-0.456487
-0.460411
-0.462453
-0.461929
-0.460625
-0.457874
-0.45475
-0.451164
-0.447192
-0.443016
-0.438603
-0.434607
-0.430094
-0.42599
-0.421669
-0.417502
-0.41339
-0.409179
-0.405191
-0.401029
-0.397268
-0.393431
-0.389536
-0.385704
-0.381972
-0.3782
-0.374543
-0.370953
-0.367402
-0.363863
-0.360328
-0.356893
-0.35347
-0.350081
-0.34678
-0.34357
-0.34034
-0.33711
-0.333931
-0.330841
-0.327791
-0.32473
-0.321681
-0.318737
-0.31586
-0.31298
-0.310039
-0.307234
-0.304468
-0.301641
-0.2989
-0.296217
-0.293556
-0.290888
-0.288225
-0.285623
-0.283012
-0.280517
-0.277945
-0.275456
-0.273007
-0.270545
-0.268139
-0.265724
-0.263372
-0.261026
-0.258715
-0.256445
-0.254188
0.317383
0.217779
0.101674
-0.0076818
-0.11067
-0.201358
-0.276587
-0.334342
-0.376876
-0.407134
-0.427668
-0.44136
-0.449549
-0.454601
-0.456327
-0.456617
-0.455084
-0.452843
-0.449989
-0.446625
-0.442964
-0.43894
-0.435118
-0.430963
-0.42691
-0.422619
-0.418426
-0.414285
-0.410086
-0.406145
-0.402063
-0.398317
-0.394385
-0.390486
-0.386648
-0.382918
-0.379104
-0.375437
-0.371845
-0.368283
-0.364712
-0.361135
-0.35769
-0.354238
-0.350817
-0.347511
-0.344253
-0.341004
-0.337753
-0.334536
-0.331436
-0.328403
-0.325327
-0.322239
-0.319292
-0.316348
-0.313431
-0.310484
-0.307615
-0.304803
-0.301958
-0.299176
-0.296449
-0.293758
-0.291067
-0.288379
-0.285763
-0.283122
-0.280617
-0.278018
-0.275508
-0.27304
-0.270553
-0.268126
-0.265687
-0.263312
-0.260941
-0.258603
-0.256304
-0.254006
0.328612
0.249786
0.161817
0.0588845
-0.0367951
-0.126437
-0.207095
-0.274506
-0.327869
-0.368384
-0.397781
-0.418544
-0.432235
-0.44149
-0.446492
-0.449217
-0.449564
-0.448706
-0.446889
-0.444313
-0.441275
-0.437707
-0.434243
-0.430355
-0.426582
-0.422619
-0.418652
-0.414697
-0.410471
-0.406596
-0.402642
-0.398791
-0.394895
-0.391081
-0.387273
-0.383574
-0.379775
-0.376111
-0.372518
-0.368958
-0.365391
-0.36181
-0.358363
-0.354902
-0.35146
-0.348126
-0.344808
-0.34155
-0.338294
-0.33507
-0.331959
-0.328878
-0.325785
-0.322687
-0.319666
-0.316701
-0.313771
-0.3108
-0.307912
-0.305083
-0.302216
-0.299408
-0.296655
-0.29394
-0.291226
-0.288512
-0.285873
-0.283201
-0.280674
-0.278048
-0.275511
-0.27302
-0.270508
-0.268059
-0.265595
-0.263196
-0.2608
-0.258435
-0.256109
-0.253774
0.331308
0.267078
0.194051
0.108015
0.0250619
-0.0577492
-0.137114
-0.208736
-0.269708
-0.319218
-0.357587
-0.386387
-0.406846
-0.42153
-0.430993
-0.437146
-0.440188
-0.441349
-0.44108
-0.439705
-0.437628
-0.434812
-0.43192
-0.42851
-0.425102
-0.421432
-0.417697
-0.413964
-0.409986
-0.406277
-0.402441
-0.398473
-0.394771
-0.391027
-0.387266
-0.383623
-0.379869
-0.376237
-0.37267
-0.369132
-0.365586
-0.362018
-0.358581
-0.355128
-0.351683
-0.348333
-0.344983
-0.341734
-0.338477
-0.335243
-0.332123
-0.329026
-0.325932
-0.322828
-0.319805
-0.31683
-0.313889
-0.310906
-0.308001
-0.305159
-0.302277
-0.299452
-0.296683
-0.293951
-0.291223
-0.288491
-0.285838
-0.283145
-0.280602
-0.277959
-0.275401
-0.272894
-0.270363
-0.267896
-0.265412
-0.262994
-0.260578
-0.258189
-0.255842
-0.253474
0.328559
0.275621
0.21723
0.152763
0.0727885
-0.00136717
-0.0745077
-0.144914
-0.208852
-0.26413
-0.309724
-0.34603
-0.373564
-0.394292
-0.408985
-0.41941
-0.425967
-0.42987
-0.43175
-0.432063
-0.431332
-0.429586
-0.42752
-0.424801
-0.421941
-0.418749
-0.415412
-0.41203
-0.408405
-0.404833
-0.401162
-0.397325
-0.393819
-0.390146
-0.386483
-0.382937
-0.37927
-0.375709
-0.372202
-0.368716
-0.365222
-0.361696
-0.358296
-0.354876
-0.351456
-0.348122
-0.344793
-0.341526
-0.33827
-0.335039
-0.331912
-0.328835
-0.32576
-0.322664
-0.319642
-0.316664
-0.313723
-0.310742
-0.307833
-0.304988
-0.302104
-0.299273
-0.296496
-0.293756
-0.291023
-0.288282
-0.285623
-0.282919
-0.280367
-0.277717
-0.275146
-0.272629
-0.270086
-0.267608
-0.265111
-0.26268
-0.26025
-0.257843
-0.255484
-0.25309
0.322906
0.278432
0.229551
0.174594
0.111528
0.0435106
-0.0223453
-0.0879829
-0.150789
-0.208154
-0.258175
-0.300192
-0.333939
-0.36057
-0.380681
-0.395782
-0.406438
-0.41371
-0.418326
-0.420841
-0.421882
-0.421575
-0.420637
-0.418869
-0.416772
-0.414233
-0.411434
-0.408495
-0.405221
-0.401961
-0.398611
-0.395104
-0.391745
-0.388245
-0.384739
-0.381333
-0.377804
-0.374357
-0.37095
-0.367553
-0.364145
-0.360697
-0.357361
-0.354006
-0.350645
-0.347364
-0.344097
-0.340847
-0.337574
-0.33433
-0.331212
-0.328187
-0.325157
-0.322094
-0.319093
-0.316131
-0.313206
-0.310244
-0.307345
-0.30451
-0.301638
-0.298814
-0.296042
-0.293305
-0.290579
-0.287841
-0.285187
-0.282484
-0.27993
-0.277284
-0.274709
-0.272191
-0.269646
-0.267164
-0.264664
-0.262226
-0.259791
-0.257374
-0.255012
-0.252602
0.315713
0.27763
0.236205
0.190422
0.138713
0.0765522
0.0185869
-0.0405369
-0.0992743
-0.15551
-0.206988
-0.252328
-0.290625
-0.322207
-0.347338
-0.367026
-0.381896
-0.392871
-0.400651
-0.405811
-0.409027
-0.410522
-0.411019
-0.410471
-0.409358
-0.407664
-0.405583
-0.403263
-0.400541
-0.397668
-0.394615
-0.391496
-0.388408
-0.385179
-0.3819
-0.37869
-0.375354
-0.372069
-0.368806
-0.365539
-0.362257
-0.358928
-0.355689
-0.352431
-0.349162
-0.345966
-0.34279
-0.339634
-0.336417
-0.333178
-0.32999
-0.32702
-0.324061
-0.321056
-0.318099
-0.315172
-0.31228
-0.309354
-0.306483
-0.303672
-0.300828
-0.298027
-0.295273
-0.292554
-0.289847
-0.287126
-0.284487
-0.281799
-0.279253
-0.276623
-0.274056
-0.271546
-0.26901
-0.266535
-0.264041
-0.261606
-0.259177
-0.256759
-0.254404
-0.251989
0.307813
0.274749
0.23922
0.200407
0.157481
0.110022
0.0507846
-0.00259652
-0.0558448
-0.10878
-0.159265
-0.205605
-0.246506
-0.281599
-0.310793
-0.334567
-0.353387
-0.367978
-0.379057
-0.387123
-0.392812
-0.396413
-0.398623
-0.399543
-0.399633
-0.398972
-0.397773
-0.396219
-0.394419
-0.391987
-0.389187
-0.386499
-0.383776
-0.380883
-0.3779
-0.374945
-0.371856
-0.368784
-0.365709
-0.362615
-0.359499
-0.356327
-0.353221
-0.350092
-0.346946
-0.343854
-0.34077
-0.337691
-0.334557
-0.331399
-0.328238
-0.325288
-0.322415
-0.319503
-0.316616
-0.313744
-0.310903
-0.308032
-0.305206
-0.302435
-0.299636
-0.296873
-0.294153
-0.291464
-0.288791
-0.286101
-0.283491
-0.280831
-0.278304
-0.275704
-0.273157
-0.270666
-0.26815
-0.265692
-0.263217
-0.260796
-0.258382
-0.255975
-0.253639
-0.25123
0.29967
0.270605
0.239704
0.206216
0.169202
0.127764
0.0812058
0.0283382
-0.0204532
-0.0690194
-0.116805
-0.16227
-0.203971
-0.241029
-0.273056
-0.300057
-0.322287
-0.340172
-0.35434
-0.3653
-0.373586
-0.379485
-0.383622
-0.386211
-0.387693
-0.388221
-0.387986
-0.387327
-0.386123
-0.384351
-0.382305
-0.380157
-0.377852
-0.375362
-0.372745
-0.370101
-0.367311
-0.3645
-0.361658
-0.358779
-0.355866
-0.352889
-0.349948
-0.346979
-0.343984
-0.341025
-0.338066
-0.33511
-0.332116
-0.329106
-0.326095
-0.322946
-0.320164
-0.317389
-0.314613
-0.311825
-0.309057
-0.30626
-0.303496
-0.30078
-0.298042
-0.295333
-0.292662
-0.290017
-0.28739
-0.284747
-0.282176
-0.27956
-0.277064
-0.274504
-0.271991
-0.26953
-0.267047
-0.264617
-0.262172
-0.259775
-0.257389
-0.255004
-0.252697
-0.250309
0.291547
0.265714
0.238503
0.20923
0.177088
0.141463
0.101894
0.0571029
0.00865014
-0.0361529
-0.0803462
-0.123585
-0.164625
-0.202254
-0.235881
-0.265114
-0.29
-0.31068
-0.327605
-0.341186
-0.351955
-0.360181
-0.366359
-0.370754
-0.37377
-0.375603
-0.376805
-0.377034
-0.37632
-0.375412
-0.374114
-0.372528
-0.370722
-0.368705
-0.366509
-0.364226
-0.361783
-0.359275
-0.356707
-0.35408
-0.351404
-0.348654
-0.345909
-0.343128
-0.340312
-0.337511
-0.334699
-0.331885
-0.329038
-0.326177
-0.323331
-0.320448
-0.3174
-0.314659
-0.31204
-0.309393
-0.306736
-0.304036
-0.301353
-0.298709
-0.296045
-0.293405
-0.290796
-0.28821
-0.285641
-0.283057
-0.280538
-0.277979
-0.275523
-0.273017
-0.270549
-0.268128
-0.265689
-0.263298
-0.260895
-0.258534
-0.256186
-0.253835
-0.251566
-0.249211
0.283593
0.260415
0.236215
0.210386
0.182241
0.151149
0.116703
0.0786625
0.0363572
-0.00885969
-0.0499644
-0.0902093
-0.12942
-0.166438
-0.200552
-0.231043
-0.25777
-0.280625
-0.299865
-0.31576
-0.328722
-0.339091
-0.347282
-0.353555
-0.358228
-0.361791
-0.363765
-0.364801
-0.365267
-0.365268
-0.364703
-0.363762
-0.362533
-0.361037
-0.359308
-0.357434
-0.355376
-0.353211
-0.350951
-0.348608
-0.346198
-0.343702
-0.341181
-0.338611
-0.335996
-0.333374
-0.330731
-0.328077
-0.325393
-0.322691
-0.319999
-0.317303
-0.314587
-0.311725
-0.308995
-0.306474
-0.303961
-0.301384
-0.298802
-0.296243
-0.293667
-0.291108
-0.288573
-0.286057
-0.283558
-0.281044
-0.278587
-0.276095
-0.273691
-0.271248
-0.268835
-0.266465
-0.26408
-0.261737
-0.259386
-0.25707
-0.254771
-0.252463
-0.250241
-0.247931
0.275891
0.254925
0.233212
0.210208
0.185294
0.157863
0.127589
0.0942015
0.0580295
0.018561
-0.0245607
-0.0623275
-0.0991465
-0.134504
-0.168029
-0.198809
-0.226549
-0.250915
-0.271952
-0.28978
-0.304706
-0.317018
-0.32697
-0.335073
-0.341469
-0.34605
-0.349319
-0.351703
-0.353234
-0.354067
-0.35429
-0.354058
-0.353449
-0.352512
-0.351289
-0.349862
-0.348222
-0.34643
-0.344508
-0.342477
-0.340357
-0.338136
-0.33586
-0.333522
-0.331126
-0.328702
-0.326245
-0.323767
-0.321257
-0.31872
-0.316177
-0.313612
-0.311006
-0.308358
-0.305688
-0.303169
-0.300775
-0.298343
-0.295884
-0.293425
-0.290946
-0.288478
-0.286027
-0.28359
-0.281169
-0.278735
-0.276348
-0.273931
-0.271587
-0.269214
-0.266865
-0.264554
-0.262231
-0.259944
-0.257653
-0.255391
-0.253148
-0.250894
-0.248726
-0.246471
0.268485
0.249383
0.229745
0.209082
0.186833
0.162436
0.135586
0.105991
0.0738193
0.0395716
0.00376484
-0.0364908
-0.0738461
-0.107122
-0.13933
-0.169463
-0.197343
-0.222496
-0.244756
-0.264061
-0.280578
-0.294752
-0.306168
-0.315689
-0.323407
-0.329468
-0.334192
-0.337755
-0.34029
-0.342027
-0.343088
-0.343593
-0.343634
-0.343288
-0.342603
-0.341653
-0.340456
-0.339063
-0.337503
-0.335806
-0.333995
-0.332066
-0.330053
-0.327962
-0.3258
-0.323589
-0.321332
-0.319042
-0.316715
-0.314351
-0.311967
-0.30956
-0.307127
-0.304665
-0.302196
-0.299622
-0.297249
-0.294953
-0.292641
-0.290301
-0.287931
-0.285562
-0.283202
-0.280851
-0.278514
-0.276165
-0.273854
-0.27152
-0.269243
-0.266946
-0.264667
-0.26242
-0.260165
-0.257941
-0.255716
-0.253514
-0.251333
-0.24914
-0.247029
-0.244838
0.261391
0.243876
0.225991
0.207292
0.187269
0.165401
0.141399
0.11497
0.0861687
0.0551423
0.0223827
-0.0110075
-0.0453676
-0.081436
-0.114547
-0.144099
-0.171612
-0.196844
-0.219703
-0.239924
-0.256952
-0.271762
-0.285087
-0.296074
-0.305047
-0.312457
-0.318425
-0.323104
-0.326685
-0.329364
-0.331272
-0.33253
-0.333246
-0.333515
-0.333388
-0.332939
-0.332204
-0.33123
-0.330052
-0.328705
-0.327219
-0.325595
-0.323861
-0.322029
-0.320111
-0.318125
-0.316079
-0.313987
-0.31185
-0.309669
-0.307455
-0.305212
-0.302944
-0.300645
-0.298334
-0.295993
-0.293543
-0.29127
-0.289101
-0.286904
-0.284665
-0.282407
-0.280145
-0.277885
-0.275637
-0.273379
-0.271148
-0.2689
-0.266695
-0.264477
-0.262273
-0.260094
-0.257912
-0.255755
-0.2536
-0.251462
-0.249348
-0.24722
-0.24517
-0.243047
0.254614
0.238463
0.222072
0.205037
0.186889
0.16715
0.145542
0.121777
0.0958514
0.0678213
0.0380404
0.00691518
-0.0248658
-0.0558347
-0.0860937
-0.11643
-0.144539
-0.17026
-0.193494
-0.214484
-0.233814
-0.250382
-0.264482
-0.276495
-0.28667
-0.295221
-0.302278
-0.308033
-0.31264
-0.316245
-0.318998
-0.32102
-0.322427
-0.323324
-0.32377
-0.323838
-0.323579
-0.323037
-0.322255
-0.321273
-0.320124
-0.318815
-0.31737
-0.315808
-0.314144
-0.312392
-0.310565
-0.308679
-0.306739
-0.304745
-0.302706
-0.30063
-0.298524
-0.296386
-0.29423
-0.292056
-0.289877
-0.287608
-0.285364
-0.283289
-0.281196
-0.279062
-0.276905
-0.274741
-0.272584
-0.270418
-0.268272
-0.266111
-0.263981
-0.261844
-0.259718
-0.257611
-0.255503
-0.253416
-0.251332
-0.249263
-0.247216
-0.245158
-0.243169
-0.241117
0.248148
0.23318
0.218074
0.20246
0.185907
0.167974
0.148398
0.126903
0.103454
0.0780611
0.0509202
0.0223612
-0.00703288
-0.0367097
-0.0663239
-0.0949443
-0.122115
-0.147559
-0.171164
-0.192754
-0.212131
-0.229188
-0.244125
-0.257187
-0.268419
-0.277989
-0.286052
-0.292787
-0.29834
-0.302833
-0.306415
-0.309198
-0.311298
-0.312828
-0.313853
-0.314447
-0.314673
-0.314575
-0.314199
-0.313592
-0.312789
-0.311803
-0.310655
-0.30937
-0.307966
-0.306456
-0.304855
-0.303181
-0.301443
-0.29964
-0.29778
-0.295875
-0.293933
-0.291955
-0.289948
-0.287913
-0.285848
-0.283742
-0.281603
-0.279545
-0.277569
-0.275566
-0.273524
-0.271462
-0.269398
-0.267324
-0.265264
-0.263191
-0.26114
-0.259085
-0.257037
-0.255004
-0.252971
-0.250954
-0.248943
-0.246943
-0.244965
-0.242977
-0.24105
-0.239071
0.241983
0.228048
0.214056
0.199666
0.184481
0.168092
0.150254
0.130704
0.109381
0.0862708
0.0614982
0.0353202
0.00806709
-0.0197329
-0.0475655
-0.0748394
-0.101275
-0.126335
-0.149771
-0.171381
-0.191047
-0.208751
-0.224484
-0.238382
-0.250483
-0.260956
-0.26993
-0.277553
-0.283965
-0.289286
-0.293659
-0.297181
-0.299963
-0.302122
-0.303726
-0.30485
-0.305565
-0.305916
-0.305952
-0.305726
-0.305276
-0.304618
-0.303774
-0.302773
-0.301634
-0.30037
-0.299001
-0.297544
-0.296011
-0.294403
-0.292726
-0.290993
-0.289217
-0.287398
-0.285539
-0.283645
-0.281724
-0.279775
-0.277797
-0.275739
-0.273827
-0.271949
-0.270035
-0.268082
-0.266113
-0.264133
-0.262159
-0.260175
-0.258203
-0.25623
-0.254261
-0.252302
-0.250344
-0.248399
-0.24646
-0.24453
-0.24262
-0.240701
-0.238837
-0.236928
0.236106
0.22308
0.210061
0.196733
0.182729
0.167671
0.151328
0.133451
0.113967
0.092841
0.0701532
0.046093
0.0209072
-0.00493295
-0.0310874
-0.0570653
-0.082497
-0.106867
-0.129923
-0.151458
-0.171318
-0.189414
-0.20567
-0.2202
-0.233024
-0.244274
-0.254046
-0.262467
-0.269665
-0.275748
-0.280856
-0.285077
-0.288519
-0.291293
-0.293468
-0.295119
-0.296321
-0.297121
-0.297573
-0.297731
-0.297637
-0.297312
-0.296775
-0.296061
-0.295191
-0.294178
-0.293043
-0.291807
-0.290482
-0.289071
-0.287579
-0.286023
-0.284414
-0.282754
-0.281046
-0.279298
-0.27752
-0.275714
-0.273883
-0.27203
-0.270078
-0.268241
-0.266462
-0.264628
-0.262759
-0.260873
-0.258987
-0.25709
-0.255199
-0.253307
-0.251417
-0.249532
-0.247649
-0.245775
-0.243908
-0.242047
-0.240204
-0.238355
-0.236551
-0.234712
0.230503
0.218281
0.206117
0.193717
0.18074
0.166835
0.151787
0.135361
0.117474
0.0980799
0.0772273
0.0550612
0.0317608
0.00770022
-0.0168571
-0.0414457
-0.0657363
-0.0892807
-0.111811
-0.133088
-0.152909
-0.171168
-0.187764
-0.202773
-0.216175
-0.228067
-0.238522
-0.247644
-0.25555
-0.26233
-0.268115
-0.272987
-0.277051
-0.280416
-0.283146
-0.285313
-0.286997
-0.288244
-0.289109
-0.289652
-0.289914
-0.289922
-0.289695
-0.289271
-0.288671
-0.287912
-0.287014
-0.286002
-0.284887
-0.283674
-0.28237
-0.28099
-0.27955
-0.278051
-0.276496
-0.274893
-0.273255
-0.271584
-0.269881
-0.268139
-0.266349
-0.264478
-0.26282
-0.261107
-0.259351
-0.257566
-0.255769
-0.253959
-0.252149
-0.250338
-0.248526
-0.246716
-0.244907
-0.243104
-0.241307
-0.239515
-0.237737
-0.235956
-0.234211
-0.23244
0.225158
0.213652
0.202244
0.19066
0.178582
0.165684
0.151764
0.136601
0.120109
0.102233
0.0829983
0.0625175
0.0409155
0.0185002
-0.00451275
-0.0277213
-0.0508452
-0.0734775
-0.0953435
-0.116196
-0.135815
-0.15408
-0.17086
-0.186192
-0.200026
-0.212431
-0.223455
-0.233183
-0.241711
-0.249117
-0.255521
-0.260997
-0.265642
-0.269563
-0.272823
-0.27549
-0.277643
-0.279328
-0.280602
-0.281526
-0.282143
-0.282483
-0.282566
-0.282431
-0.282104
-0.281598
-0.28094
-0.280151
-0.279248
-0.278235
-0.277119
-0.275919
-0.274647
-0.27331
-0.271907
-0.27045
-0.268951
-0.267413
-0.265836
-0.264225
-0.262595
-0.26096
-0.259177
-0.257544
-0.255909
-0.254229
-0.252522
-0.250799
-0.249071
-0.24734
-0.245606
-0.24387
-0.242134
-0.240402
-0.238674
-0.236949
-0.235236
-0.233521
-0.231834
-0.230128
0.220057
0.209193
0.198457
0.187594
0.176307
0.164292
0.15136
0.137303
0.122035
0.105494
0.0876903
0.06871
0.0486418
0.0277412
0.00617876
-0.0157044
-0.0376623
-0.0593285
-0.0804404
-0.100756
-0.120049
-0.138181
-0.154999
-0.170512
-0.184644
-0.19744
-0.208925
-0.219159
-0.228225
-0.236185
-0.243146
-0.249174
-0.254357
-0.258797
-0.262556
-0.2657
-0.268305
-0.270416
-0.272089
-0.273387
-0.274356
-0.275024
-0.275414
-0.275568
-0.275511
-0.275259
-0.27484
-0.274276
-0.273585
-0.272772
-0.271846
-0.270824
-0.269723
-0.268546
-0.267297
-0.265986
-0.264625
-0.26322
-0.261771
-0.260284
-0.258763
-0.257191
-0.255557
-0.253988
-0.252452
-0.250875
-0.249261
-0.247624
-0.245977
-0.244326
-0.242669
-0.241007
-0.239344
-0.237682
-0.236022
-0.234363
-0.232714
-0.231063
-0.229434
-0.227789
0.215186
0.204898
0.194763
0.184542
0.173954
0.162719
0.150657
0.137574
0.123384
0.108023
0.0914872
0.0738449
0.0551586
0.0356401
0.0154232
-0.00520019
-0.0260166
-0.0467008
-0.0670091
-0.0867099
-0.105574
-0.123458
-0.140193
-0.155763
-0.170074
-0.183149
-0.194989
-0.205637
-0.215156
-0.223595
-0.231051
-0.237575
-0.243251
-0.248172
-0.252398
-0.25599
-0.259025
-0.261544
-0.263605
-0.265268
-0.266579
-0.26757
-0.268263
-0.268702
-0.268914
-0.268915
-0.268733
-0.268393
-0.267914
-0.2673
-0.266563
-0.26572
-0.264789
-0.263774
-0.262678
-0.261512
-0.26029
-0.259018
-0.257695
-0.256326
-0.254918
-0.253471
-0.251987
-0.25044
-0.248988
-0.247513
-0.245994
-0.244445
-0.242878
-0.241306
-0.239726
-0.238138
-0.236546
-0.234953
-0.233361
-0.231768
-0.230181
-0.228592
-0.22702
-0.225435
0.210531
0.200764
0.191169
0.18152
0.171555
0.161011
0.149719
0.137498
0.124261
0.109945
0.0945385
0.0780914
0.060649
0.0423878
0.0234134
0.00397496
-0.015744
-0.0354561
-0.0549378
-0.0739719
-0.092335
-0.109881
-0.126431
-0.141954
-0.15634
-0.16959
-0.18169
-0.192661
-0.202553
-0.2114
-0.219284
-0.22625
-0.23237
-0.237733
-0.242391
-0.246402
-0.249841
-0.252749
-0.25518
-0.257195
-0.258839
-0.260145
-0.261136
-0.261855
-0.262331
-0.262581
-0.262635
-0.262517
-0.262247
-0.261833
-0.261284
-0.260619
-0.259857
-0.259003
-0.258059
-0.257039
-0.255956
-0.254816
-0.253618
-0.252369
-0.251079
-0.249749
-0.248374
-0.246959
-0.245531
-0.244149
-0.242728
-0.241267
-0.239781
-0.238287
-0.236783
-0.235268
-0.233748
-0.232224
-0.230698
-0.229169
-0.227644
-0.226117
-0.2246
-0.223073
0.206079
0.196785
0.187676
0.178541
0.169133
0.159204
0.148598
0.137141
0.124751
0.111366
0.0969666
0.0815902
0.065268
0.0481498
0.0303177
0.0119851
-0.00669089
-0.025457
-0.0441101
-0.0624494
-0.0802616
-0.097402
-0.113689
-0.129078
-0.143447
-0.156782
-0.169053
-0.180265
-0.190452
-0.199637
-0.207888
-0.21524
-0.221756
-0.227516
-0.232571
-0.236971
-0.240789
-0.244062
-0.246844
-0.249195
-0.25116
-0.252771
-0.254051
-0.255044
-0.255779
-0.256274
-0.25656
-0.256661
-0.256599
-0.256381
-0.256018
-0.255531
-0.254937
-0.254242
-0.253451
-0.252575
-0.25163
-0.250621
-0.249549
-0.24842
-0.247247
-0.246027
-0.244761
-0.243448
-0.242071
-0.24079
-0.239467
-0.238096
-0.236691
-0.235276
-0.233847
-0.232405
-0.230956
-0.229499
-0.228039
-0.226574
-0.22511
-0.223643
-0.222181
-0.22071
0.201819
0.192954
0.184287
0.175615
0.166706
0.157328
0.147333
0.136559
0.124925
0.112371
0.0988725
0.0844578
0.0691462
0.0530663
0.036282
0.0189762
0.00128334
-0.0165735
-0.0344112
-0.0520461
-0.0692769
-0.085964
-0.101927
-0.117109
-0.131386
-0.144727
-0.157091
-0.168468
-0.17888
-0.188336
-0.196894
-0.204577
-0.21144
-0.217557
-0.22297
-0.227727
-0.231896
-0.235511
-0.238625
-0.241294
-0.243565
-0.245468
-0.247027
-0.248286
-0.249273
-0.250008
-0.250521
-0.250838
-0.25098
-0.250956
-0.250777
-0.250465
-0.250037
-0.249501
-0.24886
-0.248128
-0.247319
-0.246442
-0.245494
-0.244485
-0.243425
-0.242316
-0.241159
-0.239963
-0.238739
-0.237446
-0.236212
-0.234935
-0.233613
-0.232276
-0.230922
-0.229552
-0.228172
-0.226783
-0.225389
-0.223987
-0.222583
-0.221175
-0.219768
-0.218352
0.197738
0.189266
0.181
0.172747
0.164288
0.155405
0.145959
0.135796
0.124839
0.113029
0.10034
0.0867911
0.0723928
0.0572566
0.0414322
0.0250769
0.00830555
-0.00868541
-0.0257313
-0.0426656
-0.0592999
-0.0755021
-0.0910943
-0.106016
-0.120137
-0.133417
-0.145806
-0.157281
-0.167853
-0.177519
-0.186326
-0.194287
-0.20145
-0.207881
-0.213615
-0.218696
-0.223187
-0.227119
-0.230543
-0.233513
-0.236074
-0.238255
-0.240082
-0.241597
-0.242829
-0.243796
-0.24453
-0.245058
-0.2454
-0.245566
-0.245569
-0.245429
-0.245165
-0.244785
-0.244293
-0.243704
-0.243031
-0.242282
-0.241458
-0.240567
-0.239621
-0.238621
-0.23757
-0.236474
-0.235322
-0.234091
-0.232969
-0.231781
-0.230547
-0.229289
-0.22801
-0.226712
-0.225402
-0.22408
-0.22275
-0.22141
-0.220066
-0.218716
-0.217364
-0.216001
0.193825
0.185715
0.177814
0.169941
0.16189
0.153454
0.144501
0.134888
0.12454
0.113399
0.101439
0.0886711
0.0751002
0.0608225
0.0458772
0.0303999
0.0144888
-0.00168296
-0.0179677
-0.0342148
-0.0502496
-0.0659482
-0.0811382
-0.0957563
-0.109671
-0.122835
-0.13519
-0.146704
-0.157376
-0.167195
-0.176198
-0.184389
-0.191807
-0.198509
-0.204528
-0.2099
-0.214683
-0.218907
-0.222619
-0.22587
-0.228704
-0.23115
-0.233232
-0.234992
-0.236458
-0.237651
-0.2386
-0.239333
-0.23987
-0.240222
-0.240402
-0.240432
-0.240329
-0.240103
-0.239758
-0.239308
-0.238769
-0.238149
-0.237447
-0.236673
-0.235839
-0.234946
-0.233998
-0.233003
-0.231975
-0.230927
-0.229757
-0.22864
-0.227498
-0.22632
-0.225115
-0.223888
-0.222647
-0.221392
-0.220125
-0.218847
-0.217562
-0.21627
-0.214971
-0.213662
0.190073
0.182293
0.174727
0.167202
0.159521
0.151489
0.142982
0.133865
0.124065
0.113528
0.102226
0.0901659
0.077346
0.0638504
0.0497102
0.0350432
0.019933
0.00453276
-0.0110254
-0.0266058
-0.0420469
-0.0572338
-0.0720011
-0.0862846
-0.0999534
-0.112956
-0.125228
-0.136728
-0.147449
-0.157371
-0.16652
-0.174895
-0.182524
-0.189458
-0.195725
-0.201355
-0.206403
-0.210893
-0.21487
-0.218382
-0.221471
-0.224166
-0.22649
-0.228483
-0.230175
-0.231583
-0.23274
-0.233671
-0.234397
-0.234931
-0.235285
-0.23548
-0.235535
-0.23546
-0.235259
-0.234948
-0.23454
-0.234046
-0.233465
-0.232806
-0.232083
-0.231296
-0.23045
-0.229555
-0.228617
-0.227621
-0.22656
-0.225533
-0.224471
-0.223371
-0.222239
-0.221082
-0.21991
-0.21872
-0.217517
-0.2163
-0.215073
-0.213838
-0.212593
-0.211336
0.186469
0.178996
0.171737
0.164529
0.157185
0.14952
0.141418
0.13275
0.123448
0.113457
0.102751
0.0913325
0.0791957
0.066414
0.0530119
0.0390921
0.0247266
0.0100503
-0.00481813
-0.0197566
-0.0346164
-0.0492917
-0.0636249
-0.0775524
-0.0909457
-0.10375
-0.115897
-0.127341
-0.138065
-0.148044
-0.157296
-0.16581
-0.173611
-0.18074
-0.18722
-0.193077
-0.19836
-0.203091
-0.207309
-0.211063
-0.21439
-0.217318
-0.219869
-0.222084
-0.223989
-0.225604
-0.22696
-0.228082
-0.228992
-0.229702
-0.230223
-0.23058
-0.230789
-0.230862
-0.230802
-0.230626
-0.230348
-0.229978
-0.229516
-0.228971
-0.228357
-0.227674
-0.226929
-0.226128
-0.225277
-0.224373
-0.223417
-0.222455
-0.221468
-0.220444
-0.219384
-0.218298
-0.217192
-0.216068
-0.214927
-0.213771
-0.212602
-0.211422
-0.210231
-0.209025
0.183008
0.175817
0.168841
0.161924
0.154888
0.147559
0.139825
0.131565
0.122713
0.113219
0.103054
0.0922192
0.0807051
0.0685761
0.0558512
0.0426209
0.0289467
0.0149483
0.000732208
-0.013592
-0.0278876
-0.0420575
-0.0559523
-0.0695103
-0.0826066
-0.0951842
-0.107174
-0.118524
-0.129212
-0.139208
-0.148522
-0.157138
-0.165072
-0.172362
-0.179022
-0.185076
-0.190566
-0.195511
-0.199949
-0.203923
-0.20747
-0.210615
-0.21338
-0.215803
-0.217911
-0.219723
-0.221269
-0.222574
-0.223661
-0.22454
-0.225225
-0.225738
-0.226098
-0.226314
-0.226393
-0.226349
-0.226198
-0.225949
-0.225604
-0.225171
-0.224664
-0.224084
-0.223437
-0.222731
-0.221972
-0.221166
-0.22031
-0.219397
-0.218487
-0.21754
-0.216553
-0.215535
-0.214497
-0.213436
-0.212358
-0.211261
-0.210149
-0.209025
-0.207886
-0.206731
0.179679
0.17275
0.166036
0.159387
0.152634
0.145611
0.138213
0.130325
0.121884
0.112842
0.10317
0.0928668
0.0819216
0.0703905
0.0582877
0.0456937
0.0326614
0.0192968
0.00569574
-0.00804338
-0.0217949
-0.03547
-0.048928
-0.0621094
-0.074894
-0.0872238
-0.0990292
-0.110255
-0.120874
-0.130853
-0.140193
-0.148875
-0.156909
-0.164326
-0.171136
-0.177357
-0.183028
-0.188164
-0.192799
-0.196973
-0.200721
-0.204067
-0.20703
-0.209649
-0.211948
-0.213947
-0.215674
-0.217155
-0.21841
-0.219453
-0.220296
-0.22096
-0.221466
-0.221822
-0.222035
-0.222121
-0.222094
-0.221964
-0.221732
-0.221409
-0.221007
-0.220528
-0.219978
-0.219366
-0.218699
-0.21798
-0.217201
-0.216357
-0.215531
-0.214658
-0.213745
-0.212797
-0.211824
-0.210827
-0.209809
-0.208772
-0.207716
-0.206647
-0.20556
-0.204455
0.176477
0.169791
0.163319
0.156917
0.150424
0.143682
0.136591
0.129043
0.120978
0.112348
0.103126
0.09331
0.0828856
0.0719031
0.060373
0.0483667
0.0359301
0.0231576
0.0101352
-0.00304837
-0.0162778
-0.0294722
-0.0424993
-0.0553022
-0.0677659
-0.0798327
-0.0914329
-0.102509
-0.113032
-0.122963
-0.132299
-0.141017
-0.149119
-0.156633
-0.163564
-0.169925
-0.175751
-0.181055
-0.185865
-0.19022
-0.194151
-0.197681
-0.200829
-0.20363
-0.206109
-0.208284
-0.210183
-0.21183
-0.213248
-0.214447
-0.215441
-0.216252
-0.216898
-0.21739
-0.217733
-0.217945
-0.218038
-0.218024
-0.217904
-0.217688
-0.21739
-0.21701
-0.216555
-0.216035
-0.215457
-0.214824
-0.214138
-0.213413
-0.212607
-0.211801
-0.210962
-0.210083
-0.209175
-0.208241
-0.207284
-0.206304
-0.205305
-0.204289
-0.203254
-0.202199
0.173393
0.166935
0.160687
0.154514
0.14826
0.141777
0.134969
0.127732
0.12001
0.111758
0.102949
0.0935783
0.0836316
0.0731536
0.0621511
0.0506882
0.0388048
0.0265851
0.0141066
0.00144912
-0.0112814
-0.0240112
-0.0366163
-0.0490429
-0.0611813
-0.0729746
-0.0843543
-0.0952617
-0.105665
-0.115523
-0.124828
-0.133553
-0.141697
-0.14928
-0.156306
-0.162782
-0.168739
-0.174187
-0.179152
-0.183669
-0.187766
-0.191465
-0.194782
-0.197753
-0.200399
-0.202739
-0.2048
-0.206606
-0.208177
-0.209526
-0.210665
-0.211616
-0.212398
-0.213021
-0.213491
-0.213825
-0.214036
-0.214135
-0.214123
-0.214012
-0.213814
-0.213532
-0.213171
-0.21274
-0.212249
-0.2117
-0.211094
-0.210433
-0.209711
-0.208979
-0.208209
-0.207396
-0.206552
-0.205679
-0.204782
-0.20386
-0.202916
-0.201953
-0.200969
-0.199964
0.170422
0.164176
0.158137
0.152175
0.146144
0.139899
0.13335
0.126401
0.118994
0.111089
0.102658
0.0936967
0.0841894
0.0741759
0.0636606
0.0527006
0.0413312
0.0296275
0.0176597
0.00549958
-0.0067554
-0.0190383
-0.0312328
-0.0432883
-0.0551007
-0.0666144
-0.0777623
-0.0884855
-0.0987506
-0.108514
-0.117765
-0.126473
-0.134634
-0.142262
-0.149358
-0.155926
-0.161993
-0.167564
-0.172664
-0.177323
-0.181569
-0.185421
-0.188894
-0.192021
-0.194823
-0.197318
-0.199531
-0.201486
-0.203204
-0.204695
-0.205973
-0.207059
-0.207971
-0.20872
-0.209312
-0.209764
-0.210088
-0.210297
-0.210392
-0.210383
-0.210283
-0.210096
-0.209826
-0.209483
-0.209077
-0.208609
-0.20808
-0.207493
-0.206852
-0.20619
-0.205485
-0.204736
-0.203955
-0.203144
-0.202305
-0.201439
-0.20055
-0.19964
-0.198706
-0.197749
0.167558
0.161509
0.155666
0.149901
0.144075
0.13805
0.131742
0.125056
0.11794
0.110354
0.102271
0.0936869
0.0845843
0.0749994
0.0649345
0.0544407
0.0435492
0.0323274
0.0208389
0.00914831
-0.00265455
-0.0145089
-0.0263058
-0.0379979
-0.0494863
-0.0607175
-0.0716263
-0.0821538
-0.0922657
-0.101917
-0.111095
-0.119765
-0.127921
-0.135572
-0.142716
-0.149354
-0.15551
-0.161185
-0.166401
-0.171186
-0.175564
-0.179554
-0.183169
-0.186439
-0.189386
-0.192024
-0.19438
-0.196476
-0.198331
-0.199957
-0.201367
-0.202582
-0.203619
-0.204489
-0.2052
-0.205765
-0.2062
-0.206515
-0.206712
-0.206802
-0.206799
-0.206704
-0.206523
-0.206267
-0.205943
-0.205555
-0.205102
-0.204593
-0.204024
-0.20343
-0.202789
-0.202105
-0.201387
-0.200635
-0.199853
-0.199043
-0.198208
-0.197349
-0.196466
-0.195557
0.164795
0.158932
0.15327
0.147689
0.142054
0.136234
0.130147
0.123705
0.116857
0.109565
0.101804
0.0935671
0.0848383
0.0756495
0.0660018
0.0559407
0.0454939
0.0347222
0.0236834
0.0124358
0.00106219
-0.0103823
-0.0217956
-0.0331335
-0.0443026
-0.0552512
-0.0659164
-0.07624
-0.0861873
-0.0957127
-0.1048
-0.113415
-0.121546
-0.129201
-0.136374
-0.143063
-0.149287
-0.155048
-0.160363
-0.165257
-0.169752
-0.173865
-0.177608
-0.181009
-0.184088
-0.18686
-0.189349
-0.191577
-0.193562
-0.195316
-0.196852
-0.198189
-0.199346
-0.200332
-0.201155
-0.20183
-0.202372
-0.20279
-0.203087
-0.203273
-0.203362
-0.203357
-0.203263
-0.203091
-0.202848
-0.202538
-0.202163
-0.20173
-0.20124
-0.2007
-0.200124
-0.199504
-0.198847
-0.198153
-0.197429
-0.196673
-0.19589