/*--------------------------------*- C++ -*----------------------------------*\
| =========                 |                                                 |
| \\      /  F ield         | OpenFOAM: The Open Source CFD Toolbox           |
|  \\    /   O peration     | Version:  2412                                  |
|   \\  /    A nd           | Website:  www.openfoam.com                      |
|    \\/     M anipulation  |                                                 |
\*---------------------------------------------------------------------------*/
FoamFile
{
    version     2.0;
    format      ascii;
    arch        "LSB;label=32;scalar=64";
    class       volScalarField;
    location    "0.19";
    object      p;
}
// * * * * * * * * * * * * * * * * * * * * * * * * * * * * * * * * * * * * * //

dimensions      [0 2 -2 0 0 0 0];

internalField   nonuniform List<scalar> 
257400
(
0.181411
-0.0125869
-0.185526
-0.324205
-0.427415
-0.498646
-0.545284
-0.57262
-0.588694
-0.597505
-0.60103
-0.600834
-0.597761
-0.594097
-0.588436
-0.583056
-0.576584
-0.57059
-0.564455
-0.55822
-0.552059
-0.545952
-0.540351
-0.534425
-0.528948
-0.523329
-0.517983
-0.512773
-0.507568
-0.502733
-0.497832
-0.493128
-0.488442
-0.483702
-0.479173
-0.474823
-0.470396
-0.466211
-0.462132
-0.45809
-0.454035
-0.450005
-0.446165
-0.442318
-0.438536
-0.434911
-0.43134
-0.427802
-0.424238
-0.420739
-0.417368
-0.414035
-0.410749
-0.407462
-0.404302
-0.401191
-0.39809
-0.394958
-0.391956
-0.388997
-0.385995
-0.383088
-0.380247
-0.377431
-0.374604
-0.371788
-0.369056
-0.366313
-0.363734
-0.361
-0.358411
-0.355863
-0.353276
-0.350763
-0.348224
-0.345766
-0.343304
-0.340884
-0.338514
-0.336163
0.198988
0.0527413
-0.0910764
-0.221672
-0.33302
-0.420825
-0.486001
-0.529973
-0.558745
-0.576692
-0.586462
-0.591009
-0.591482
-0.590227
-0.586648
-0.582521
-0.577155
-0.571683
-0.565949
-0.560003
-0.554007
-0.54791
-0.542378
-0.536437
-0.530986
-0.525459
-0.520162
-0.514995
-0.509815
-0.504967
-0.500139
-0.495306
-0.490487
-0.48579
-0.481315
-0.476927
-0.472508
-0.468245
-0.464081
-0.459986
-0.455923
-0.451885
-0.447978
-0.444097
-0.440268
-0.43655
-0.432895
-0.429295
-0.425709
-0.422168
-0.418713
-0.415277
-0.412006
-0.408649
-0.405402
-0.402223
-0.399071
-0.395895
-0.392832
-0.389835
-0.386774
-0.383829
-0.380958
-0.378112
-0.375252
-0.372394
-0.369623
-0.366818
-0.364164
-0.361418
-0.358761
-0.356145
-0.353518
-0.350949
-0.348373
-0.345863
-0.343359
-0.340893
-0.338469
-0.336058
0.231454
0.117706
-0.0126637
-0.134933
-0.247213
-0.343853
-0.421961
-0.480043
-0.52117
-0.549018
-0.566807
-0.577482
-0.582284
-0.583994
-0.582556
-0.579943
-0.575746
-0.571081
-0.566005
-0.560595
-0.555046
-0.549274
-0.54383
-0.538162
-0.53273
-0.527098
-0.521686
-0.516435
-0.511238
-0.506387
-0.501501
-0.49658
-0.491752
-0.487211
-0.482643
-0.478206
-0.473724
-0.469429
-0.465243
-0.461117
-0.457007
-0.452913
-0.448981
-0.445059
-0.441185
-0.437442
-0.433759
-0.430127
-0.426494
-0.42291
-0.419425
-0.415995
-0.41264
-0.40925
-0.405997
-0.402793
-0.399642
-0.396409
-0.39335
-0.390325
-0.387258
-0.384251
-0.381307
-0.378409
-0.37552
-0.372636
-0.36983
-0.367002
-0.364321
-0.361542
-0.358859
-0.356225
-0.353571
-0.350982
-0.34838
-0.345846
-0.343317
-0.340822
-0.338369
-0.335915
0.253928
0.160845
0.0550156
-0.0542013
-0.159621
-0.257581
-0.343936
-0.414477
-0.468767
-0.50861
-0.5363
-0.554783
-0.565751
-0.572046
-0.574034
-0.573888
-0.571533
-0.568177
-0.564062
-0.559364
-0.554367
-0.548981
-0.543843
-0.538398
-0.533182
-0.52788
-0.522662
-0.517521
-0.512183
-0.507292
-0.502313
-0.497369
-0.492781
-0.488288
-0.483678
-0.479241
-0.474752
-0.470439
-0.466232
-0.462089
-0.457967
-0.453853
-0.449903
-0.445959
-0.442054
-0.438279
-0.434564
-0.430905
-0.427245
-0.423631
-0.420119
-0.416672
-0.413221
-0.409827
-0.406554
-0.403353
-0.400141
-0.396908
-0.393749
-0.390674
-0.387576
-0.384543
-0.381576
-0.378655
-0.375741
-0.372828
-0.369997
-0.367135
-0.364428
-0.361622
-0.358909
-0.356248
-0.353567
-0.350952
-0.348323
-0.345764
-0.343208
-0.340684
-0.338202
-0.335707
0.265686
0.190423
0.107337
0.00963908
-0.0839802
-0.175883
-0.262942
-0.340115
-0.404353
-0.45524
-0.493511
-0.5212
-0.539902
-0.55237
-0.559235
-0.562724
-0.563143
-0.561823
-0.559235
-0.5557
-0.551621
-0.546936
-0.542321
-0.537297
-0.532393
-0.52732
-0.522273
-0.517315
-0.512173
-0.507314
-0.502289
-0.497558
-0.493211
-0.488596
-0.484006
-0.479606
-0.475143
-0.47084
-0.466638
-0.462498
-0.458383
-0.454268
-0.450314
-0.446368
-0.442454
-0.438664
-0.434934
-0.431261
-0.427588
-0.423959
-0.420437
-0.41699
-0.413457
-0.410058
-0.406773
-0.403518
-0.400295
-0.397044
-0.39388
-0.390797
-0.387681
-0.384627
-0.381637
-0.378694
-0.375762
-0.372828
-0.369982
-0.367096
-0.364371
-0.361547
-0.358812
-0.356133
-0.353431
-0.350798
-0.348148
-0.345568
-0.342991
-0.340441
-0.337939
-0.33541
0.270132
0.207526
0.138397
0.0599896
-0.0245084
-0.107024
-0.188759
-0.266174
-0.335165
-0.39372
-0.440982
-0.477653
-0.50454
-0.523997
-0.53686
-0.545114
-0.549333
-0.550907
-0.550541
-0.548721
-0.545989
-0.542358
-0.538547
-0.534184
-0.529798
-0.52517
-0.520485
-0.515836
-0.510999
-0.506238
-0.501336
-0.496909
-0.492575
-0.487989
-0.483494
-0.479175
-0.47478
-0.470528
-0.466367
-0.462263
-0.458184
-0.454097
-0.450164
-0.446242
-0.442343
-0.438564
-0.434841
-0.431175
-0.427509
-0.423885
-0.420367
-0.416914
-0.413396
-0.409953
-0.406653
-0.403374
-0.40015
-0.396898
-0.393722
-0.390626
-0.387502
-0.384437
-0.381436
-0.378482
-0.375542
-0.372597
-0.369743
-0.366845
-0.364109
-0.361276
-0.358526
-0.355837
-0.353123
-0.350478
-0.347816
-0.345222
-0.342631
-0.340064
-0.337549
-0.334996
0.270143
0.217163
0.15948
0.0951918
0.0190624
-0.0526411
-0.126187
-0.199169
-0.268005
-0.329995
-0.383137
-0.426926
-0.461273
-0.487643
-0.506841
-0.520543
-0.529384
-0.53466
-0.537233
-0.537736
-0.536848
-0.534694
-0.532028
-0.528621
-0.52499
-0.521003
-0.516834
-0.5126
-0.508108
-0.503689
-0.499209
-0.494949
-0.490652
-0.486253
-0.481914
-0.477726
-0.473454
-0.469301
-0.465225
-0.461195
-0.457189
-0.453169
-0.449288
-0.445418
-0.441567
-0.437824
-0.434133
-0.430496
-0.42686
-0.423262
-0.419762
-0.416311
-0.412818
-0.409362
-0.406023
-0.402773
-0.399576
-0.39634
-0.393172
-0.390083
-0.386968
-0.383907
-0.380908
-0.377954
-0.375019
-0.372075
-0.369224
-0.366326
-0.363587
-0.360759
-0.358005
-0.355314
-0.352599
-0.349951
-0.347286
-0.344686
-0.342092
-0.339516
-0.337001
-0.334433
0.267582
0.22203
0.172959
0.119252
0.0596964
-0.0098338
-0.0756064
-0.14186
-0.207249
-0.269009
-0.324673
-0.372953
-0.41301
-0.445385
-0.470505
-0.48961
-0.503402
-0.512907
-0.518999
-0.522384
-0.52383
-0.523581
-0.52242
-0.520279
-0.517662
-0.514538
-0.51109
-0.507471
-0.503518
-0.499547
-0.495528
-0.49144
-0.487365
-0.483235
-0.479114
-0.475112
-0.471021
-0.467021
-0.463079
-0.459168
-0.455277
-0.451365
-0.447573
-0.44379
-0.440019
-0.436344
-0.432714
-0.429133
-0.425554
-0.422008
-0.418548
-0.415126
-0.411678
-0.408238
-0.404883
-0.40167
-0.398513
-0.395315
-0.392173
-0.389105
-0.386015
-0.382975
-0.379992
-0.377053
-0.374136
-0.371208
-0.368373
-0.365489
-0.362758
-0.359947
-0.357202
-0.35452
-0.351815
-0.349175
-0.346519
-0.343924
-0.341338
-0.338763
-0.33626
-0.33369
0.263518
0.223796
0.181396
0.135203
0.083538
0.0232787
-0.0354874
-0.094909
-0.154994
-0.213917
-0.269306
-0.319455
-0.363054
-0.399881
-0.429948
-0.453907
-0.472372
-0.486177
-0.496075
-0.502725
-0.506896
-0.50893
-0.509609
-0.50903
-0.507685
-0.505646
-0.50312
-0.500294
-0.497023
-0.493665
-0.489988
-0.486282
-0.482603
-0.478819
-0.474991
-0.47124
-0.467393
-0.463602
-0.459845
-0.456102
-0.45237
-0.448611
-0.444944
-0.441284
-0.437629
-0.434054
-0.430514
-0.427018
-0.423524
-0.420056
-0.41666
-0.413294
-0.409903
-0.406483
-0.403101
-0.399965
-0.396884
-0.393757
-0.390668
-0.387641
-0.384594
-0.381592
-0.378643
-0.375733
-0.372849
-0.369953
-0.367146
-0.364293
-0.361581
-0.3588
-0.356077
-0.353417
-0.350734
-0.348114
-0.34548
-0.342902
-0.340336
-0.337776
-0.335295
-0.332737
0.258591
0.223518
0.186383
0.146335
0.102685
0.0545225
-0.00428733
-0.0575888
-0.11165
-0.166203
-0.21931
-0.269161
-0.31424
-0.353785
-0.387453
-0.415371
-0.43791
-0.455618
-0.469223
-0.479249
-0.486364
-0.490944
-0.493734
-0.494967
-0.495121
-0.494366
-0.49295
-0.491119
-0.489006
-0.486059
-0.482743
-0.479582
-0.47637
-0.472996
-0.469536
-0.466102
-0.462558
-0.45903
-0.455507
-0.451979
-0.44845
-0.444884
-0.441382
-0.43788
-0.434375
-0.43093
-0.427511
-0.424127
-0.420745
-0.417383
-0.414078
-0.410801
-0.407514
-0.404209
-0.400949
-0.397702
-0.394678
-0.39165
-0.388636
-0.385667
-0.382682
-0.379734
-0.376834
-0.373969
-0.371132
-0.368284
-0.365517
-0.36271
-0.36003
-0.357293
-0.354606
-0.351978
-0.349332
-0.346743
-0.344144
-0.341594
-0.339061
-0.336528
-0.334082
-0.331551
0.2532
0.221912
0.189058
0.153938
0.115803
0.0737275
0.027229
-0.0269363
-0.0764222
-0.126052
-0.175654
-0.223655
-0.268546
-0.309226
-0.345094
-0.375865
-0.40167
-0.422728
-0.439598
-0.452795
-0.462845
-0.470079
-0.475149
-0.47837
-0.480202
-0.480888
-0.480666
-0.479844
-0.478478
-0.476348
-0.473946
-0.47143
-0.468726
-0.465838
-0.462818
-0.45976
-0.456573
-0.453358
-0.450117
-0.446848
-0.44356
-0.440226
-0.436924
-0.433611
-0.430287
-0.427001
-0.423731
-0.420485
-0.417241
-0.414007
-0.410817
-0.407648
-0.404472
-0.401267
-0.398069
-0.394795
-0.39188
-0.388973
-0.386066
-0.383182
-0.380277
-0.3774
-0.374564
-0.371759
-0.368982
-0.366195
-0.363482
-0.360734
-0.358097
-0.355417
-0.352778
-0.350194
-0.347596
-0.345051
-0.342498
-0.339989
-0.3375
-0.335006
-0.332605
-0.330115
0.247592
0.219428
0.190067
0.158885
0.125202
0.0883216
0.0477118
0.00225006
-0.0470484
-0.0928588
-0.138458
-0.183595
-0.227077
-0.267617
-0.304439
-0.336965
-0.365127
-0.388858
-0.408503
-0.424435
-0.437154
-0.446956
-0.454347
-0.459649
-0.463281
-0.465538
-0.46685
-0.467265
-0.466395
-0.465286
-0.46378
-0.461931
-0.459822
-0.45749
-0.454966
-0.452336
-0.449553
-0.446697
-0.443778
-0.440804
-0.437793
-0.434721
-0.431651
-0.428556
-0.425439
-0.422338
-0.419239
-0.416155
-0.413069
-0.409985
-0.406929
-0.403887
-0.400845
-0.397793
-0.39478
-0.391741
-0.388569
-0.385726
-0.382966
-0.380204
-0.377403
-0.374614
-0.371854
-0.369121
-0.366416
-0.363702
-0.361054
-0.358377
-0.355795
-0.353181
-0.350602
-0.348072
-0.345532
-0.34304
-0.340544
-0.338086
-0.335651
-0.333209
-0.330861
-0.328423
0.241923
0.216368
0.189902
0.161977
0.131991
0.0993228
0.0635975
0.0244205
-0.0190202
-0.0650226
-0.1074
-0.149162
-0.190333
-0.229739
-0.26649
-0.299801
-0.329452
-0.355132
-0.376989
-0.395242
-0.410231
-0.422299
-0.431891
-0.439274
-0.444791
-0.448853
-0.451413
-0.452561
-0.453051
-0.453039
-0.452386
-0.451285
-0.44985
-0.448122
-0.446138
-0.443984
-0.441644
-0.439183
-0.436621
-0.433976
-0.43127
-0.428486
-0.425673
-0.42282
-0.419931
-0.417037
-0.414131
-0.411227
-0.408316
-0.405398
-0.402492
-0.399594
-0.396698
-0.393791
-0.390903
-0.387993
-0.385057
-0.382098
-0.379381
-0.376766
-0.3741
-0.371418
-0.368748
-0.366097
-0.363472
-0.360842
-0.358267
-0.355669
-0.35315
-0.350611
-0.3481
-0.345633
-0.34316
-0.340729
-0.338299
-0.3359
-0.333528
-0.331146
-0.328857
-0.326483
0.236292
0.212944
0.188911
0.163705
0.136787
0.107586
0.075791
0.0410443
0.00357371
-0.0374199
-0.0814893
-0.12036
-0.15878
-0.196158
-0.231891
-0.265104
-0.295448
-0.322385
-0.345876
-0.365991
-0.382913
-0.396943
-0.408451
-0.417731
-0.42511
-0.430621
-0.434374
-0.437057
-0.438825
-0.43977
-0.440008
-0.439721
-0.439
-0.437912
-0.436507
-0.434866
-0.433
-0.430966
-0.42879
-0.4265
-0.424122
-0.421648
-0.419113
-0.416521
-0.413878
-0.411207
-0.408511
-0.405803
-0.40308
-0.40034
-0.397599
-0.394856
-0.392112
-0.389356
-0.386612
-0.383865
-0.38111
-0.378299
-0.3754
-0.372914
-0.370405
-0.367861
-0.365299
-0.362738
-0.360201
-0.357661
-0.355167
-0.352655
-0.350206
-0.347746
-0.345311
-0.342912
-0.340512
-0.338148
-0.335789
-0.333456
-0.331152
-0.328837
-0.326612
-0.324308
0.230762
0.209299
0.18733
0.164416
0.140067
0.113757
0.085202
0.0540815
0.0205246
-0.0150468
-0.052451
-0.0945125
-0.132287
-0.167342
-0.201397
-0.233631
-0.263864
-0.291359
-0.315903
-0.337423
-0.3559
-0.371586
-0.384856
-0.395595
-0.404459
-0.4114
-0.416767
-0.420842
-0.42374
-0.425695
-0.426881
-0.427432
-0.42745
-0.427031
-0.426234
-0.425135
-0.42377
-0.422186
-0.420419
-0.418506
-0.416476
-0.414327
-0.412089
-0.409772
-0.407389
-0.404957
-0.402483
-0.399984
-0.397459
-0.394908
-0.392341
-0.389762
-0.387178
-0.384579
-0.381982
-0.379378
-0.376769
-0.374149
-0.371552
-0.368815
-0.366376
-0.363996
-0.361563
-0.359106
-0.356662
-0.354216
-0.351806
-0.349383
-0.347011
-0.344634
-0.342277
-0.339951
-0.337628
-0.335336
-0.333051
-0.330789
-0.328555
-0.326312
-0.324153
-0.321924
0.225372
0.205534
0.185331
0.164369
0.142195
0.118327
0.0924977
0.0644157
0.0341058
0.00167081
-0.0323942
-0.0670673
-0.10405
-0.141658
-0.175543
-0.206341
-0.235801
-0.263097
-0.28804
-0.310517
-0.330145
-0.34641
-0.360834
-0.373395
-0.383572
-0.391923
-0.398689
-0.403998
-0.408043
-0.411051
-0.413188
-0.414584
-0.415361
-0.415634
-0.415464
-0.414929
-0.414081
-0.412967
-0.411629
-0.41011
-0.408442
-0.406633
-0.404704
-0.402676
-0.400564
-0.398381
-0.39614
-0.393859
-0.391541
-0.389186
-0.386801
-0.384395
-0.381975
-0.379538
-0.37709
-0.374631
-0.372166
-0.369684
-0.367176
-0.364627
-0.362116
-0.359861
-0.357571
-0.355243
-0.352908
-0.35056
-0.348237
-0.345907
-0.343614
-0.341322
-0.339047
-0.336796
-0.334551
-0.332333
-0.330125
-0.327935
-0.325773
-0.323605
-0.321512
-0.31936
0.220142
0.201718
0.183041
0.163753
0.143439
0.121653
0.0981406
0.0726252
0.0450857
0.0155529
-0.0156665
-0.0482113
-0.0812828
-0.11338
-0.146089
-0.178774
-0.208442
-0.235791
-0.26073
-0.283132
-0.303575
-0.322321
-0.338078
-0.351497
-0.36284
-0.372412
-0.380345
-0.386808
-0.391976
-0.396011
-0.399083
-0.401328
-0.402876
-0.40385
-0.404319
-0.404362
-0.404045
-0.403415
-0.402519
-0.401406
-0.400114
-0.398653
-0.397045
-0.395316
-0.393483
-0.391559
-0.38956
-0.387504
-0.385401
-0.383247
-0.381051
-0.378822
-0.376573
-0.374299
-0.372005
-0.369693
-0.367372
-0.365037
-0.362704
-0.360382
-0.358033
-0.355583
-0.353383
-0.351201
-0.348987
-0.346743
-0.344511
-0.342273
-0.340062
-0.337856
-0.335663
-0.33349
-0.331324
-0.32918
-0.327048
-0.324932
-0.322843
-0.320749
-0.318722
-0.316646
0.215087
0.1979
0.180552
0.162713
0.144001
0.124003
0.10248
0.079167
0.0540279
0.0270511
-0.00159303
-0.0315644
-0.0624035
-0.0936162
-0.124762
-0.154708
-0.183363
-0.21047
-0.235827
-0.2592
-0.280348
-0.299176
-0.315579
-0.32997
-0.342413
-0.353054
-0.362032
-0.369537
-0.37573
-0.380735
-0.384717
-0.3878
-0.390115
-0.39179
-0.392902
-0.393531
-0.393753
-0.393615
-0.393171
-0.392474
-0.391566
-0.390462
-0.389183
-0.387761
-0.386214
-0.384555
-0.382804
-0.380981
-0.379097
-0.37715
-0.375147
-0.373101
-0.371025
-0.368917
-0.36678
-0.364618
-0.362444
-0.360255
-0.358057
-0.355838
-0.353585
-0.351319
-0.349117
-0.347039
-0.344944
-0.34281
-0.340672
-0.338526
-0.336399
-0.334277
-0.332167
-0.330072
-0.327985
-0.325916
-0.32386
-0.321816
-0.319799
-0.317779
-0.315816
-0.313815
0.210211
0.194115
0.177931
0.161356
0.144034
0.125584
0.10578
0.0843723
0.0613096
0.0365599
0.0102299
-0.0174315
-0.0461692
-0.0753897
-0.104636
-0.133411
-0.161416
-0.188045
-0.213071
-0.236294
-0.257518
-0.276738
-0.2939
-0.309141
-0.322462
-0.334017
-0.343937
-0.35238
-0.359488
-0.365385
-0.370227
-0.374119
-0.377183
-0.379551
-0.381302
-0.382517
-0.38328
-0.383639
-0.383651
-0.383376
-0.382858
-0.382117
-0.381173
-0.380063
-0.378808
-0.37742
-0.375922
-0.374337
-0.372675
-0.370939
-0.369133
-0.367274
-0.365375
-0.363436
-0.361458
-0.359448
-0.357419
-0.355371
-0.353301
-0.351212
-0.349106
-0.34698
-0.344797
-0.342794
-0.34081
-0.338792
-0.336754
-0.3347
-0.332656
-0.33062
-0.328592
-0.326575
-0.324565
-0.322571
-0.320589
-0.318618
-0.316671
-0.314723
-0.312823
-0.310895
0.205515
0.190387
0.175229
0.159762
0.143655
0.126554
0.108246
0.088495
0.0672386
0.0444356
0.0201476
-0.00543505
-0.0320972
-0.0593679
-0.0869766
-0.114433
-0.141333
-0.16717
-0.191712
-0.214743
-0.236062
-0.255609
-0.273261
-0.289099
-0.303119
-0.315453
-0.326194
-0.335466
-0.343402
-0.350111
-0.355743
-0.360394
-0.364178
-0.367219
-0.369597
-0.371391
-0.372691
-0.373546
-0.374016
-0.374165
-0.37404
-0.373664
-0.37306
-0.372265
-0.371305
-0.370192
-0.368952
-0.367607
-0.366172
-0.36465
-0.363045
-0.361375
-0.359655
-0.357887
-0.35607
-0.354214
-0.352331
-0.350423
-0.348489
-0.346534
-0.344564
-0.342583
-0.340592
-0.338515
-0.336614
-0.334717
-0.332783
-0.330823
-0.328863
-0.326911
-0.324965
-0.323025
-0.321093
-0.319172
-0.317264
-0.315364
-0.313485
-0.311608
-0.309769
-0.30791
0.200996
0.186732
0.172485
0.157996
0.142957
0.127038
0.110038
0.0917366
0.0720624
0.0509684
0.0284895
0.00477249
-0.020024
-0.0455375
-0.0715293
-0.0975385
-0.123245
-0.14821
-0.172164
-0.194867
-0.216093
-0.235736
-0.253662
-0.269931
-0.284507
-0.29748
-0.308912
-0.318907
-0.32758
-0.335025
-0.34138
-0.34673
-0.351188
-0.354873
-0.357856
-0.360216
-0.362043
-0.363388
-0.364313
-0.364885
-0.365152
-0.365142
-0.364878
-0.364401
-0.363738
-0.362903
-0.361922
-0.360821
-0.359616
-0.358308
-0.356906
-0.355428
-0.35389
-0.352293
-0.350639
-0.348938
-0.347203
-0.345437
-0.343639
-0.341815
-0.339971
-0.338108
-0.336212
-0.33428
-0.332401
-0.330607
-0.328779
-0.326914
-0.325041
-0.323172
-0.321306
-0.319444
-0.317588
-0.315741
-0.313904
-0.312074
-0.310262
-0.308453
-0.306675
-0.304881
0.19665
0.18316
0.169726
0.156105
0.14201
0.127133
0.111285
0.0942576
0.0759766
0.0563894
0.0355144
0.0134616
-0.00965332
-0.0335292
-0.0579663
-0.0825774
-0.107093
-0.131108
-0.154347
-0.176567
-0.197533
-0.217118
-0.235173
-0.251726
-0.26671
-0.280183
-0.292185
-0.302796
-0.312113
-0.320214
-0.327223
-0.333217
-0.338298
-0.342584
-0.346143
-0.349047
-0.351387
-0.353211
-0.354584
-0.355574
-0.35623
-0.356584
-0.35666
-0.356501
-0.356135
-0.355578
-0.354858
-0.354002
-0.353026
-0.351936
-0.350739
-0.349454
-0.348098
-0.346674
-0.345185
-0.343639
-0.342053
-0.340429
-0.338767
-0.337071
-0.335352
-0.333608
-0.331836
-0.330032
-0.328163
-0.32647
-0.324748
-0.322986
-0.321203
-0.319418
-0.317632
-0.315847
-0.314066
-0.312292
-0.310526
-0.308765
-0.307018
-0.305275
-0.303556
-0.301825
0.192472
0.179679
0.166973
0.154127
0.140871
0.126916
0.112087
0.0961863
0.0791375
0.0608846
0.0414349
0.0208717
-0.000719593
-0.0230879
-0.0460758
-0.0693531
-0.0926825
-0.1157
-0.138146
-0.159783
-0.180373
-0.199776
-0.217826
-0.234523
-0.249778
-0.263625
-0.276083
-0.287206
-0.297074
-0.30575
-0.313344
-0.319922
-0.325578
-0.330421
-0.334519
-0.33794
-0.340771
-0.343059
-0.344869
-0.346267
-0.347307
-0.34802
-0.348432
-0.348588
-0.348518
-0.348239
-0.34778
-0.347169
-0.346424
-0.345551
-0.344558
-0.343467
-0.342294
-0.341045
-0.33972
-0.338331
-0.336893
-0.335413
-0.333885
-0.332319
-0.330724
-0.329101
-0.327453
-0.325789
-0.324123
-0.322347
-0.320702
-0.319048
-0.317361
-0.31566
-0.313954
-0.312245
-0.31054
-0.308837
-0.307141
-0.305448
-0.303765
-0.302087
-0.300426
-0.298756
0.188454
0.176293
0.164243
0.152091
0.139583
0.126451
0.112527
0.0976261
0.0816719
0.064606
0.046427
0.0271997
0.00698523
-0.0140063
-0.0356498
-0.0576608
-0.0798338
-0.101847
-0.123461
-0.144448
-0.164572
-0.183688
-0.201616
-0.218337
-0.233745
-0.247853
-0.260657
-0.272193
-0.282523
-0.291694
-0.299802
-0.306904
-0.313082
-0.318439
-0.323037
-0.326942
-0.330239
-0.332971
-0.335201
-0.336997
-0.338411
-0.339476
-0.340219
-0.340687
-0.340909
-0.340905
-0.340705
-0.340338
-0.339823
-0.339167
-0.338379
-0.337482
-0.336492
-0.335417
-0.334257
-0.333025
-0.331736
-0.330397
-0.329006
-0.327568
-0.326098
-0.324595
-0.32306
-0.321501
-0.319908
-0.318273
-0.316678
-0.315115
-0.313522
-0.311907
-0.31028
-0.308648
-0.307016
-0.305385
-0.303758
-0.302132
-0.300513
-0.298897
-0.297294
-0.295683
0.184591
0.173004
0.161546
0.150019
0.138183
0.125786
0.112671
0.0986613
0.0836832
0.0676773
0.050635
0.0326076
0.0136374
-0.00609794
-0.0264985
-0.0473198
-0.0683854
-0.0894113
-0.110177
-0.13047
-0.150063
-0.168808
-0.186521
-0.203166
-0.218624
-0.232889
-0.245942
-0.257798
-0.268505
-0.278093
-0.286647
-0.29421
-0.300858
-0.306683
-0.311743
-0.316099
-0.319831
-0.322983
-0.325615
-0.327794
-0.329569
-0.330978
-0.332044
-0.332817
-0.333327
-0.333594
-0.333651
-0.333525
-0.333238
-0.332797
-0.332214
-0.331509
-0.330702
-0.3298
-0.328805
-0.32773
-0.32659
-0.325393
-0.324136
-0.322828
-0.321481
-0.320095
-0.318671
-0.317216
-0.315735
-0.314226
-0.312678
-0.311198
-0.309695
-0.308165
-0.306618
-0.305061
-0.303503
-0.301943
-0.300384
-0.298824
-0.297268
-0.295714
-0.294168
-0.292614
0.180876
0.169812
0.158892
0.14793
0.136699
0.124963
0.112571
0.0993606
0.0852566
0.0702004
0.0541785
0.0372311
0.0193871
0.000797476
-0.0184582
-0.0381693
-0.0581842
-0.078252
-0.098173
-0.11775
-0.136768
-0.155083
-0.172506
-0.188991
-0.204411
-0.218744
-0.231957
-0.244049
-0.255052
-0.264984
-0.273917
-0.281882
-0.288945
-0.295192
-0.300674
-0.305446
-0.309584
-0.31313
-0.316142
-0.318684
-0.320808
-0.322547
-0.323928
-0.324998
-0.32579
-0.326323
-0.326632
-0.326744
-0.326682
-0.326454
-0.326073
-0.325559
-0.324934
-0.324205
-0.323373
-0.322453
-0.321462
-0.320406
-0.319284
-0.318104
-0.31688
-0.31561
-0.314298
-0.312951
-0.311576
-0.310165
-0.308708
-0.307299
-0.305881
-0.304437
-0.302971
-0.301491
-0.300005
-0.298515
-0.297024
-0.295529
-0.294035
-0.292542
-0.291052
-0.289554
0.177302
0.166716
0.156287
0.145837
0.135154
0.124013
0.112273
0.0997804
0.0864619
0.0722599
0.0571568
0.0411842
0.0243608
0.00681627
-0.0113866
-0.0300656
-0.0490902
-0.0682388
-0.0873314
-0.106188
-0.124606
-0.142446
-0.159523
-0.175782
-0.19109
-0.205414
-0.218709
-0.23096
-0.242186
-0.252394
-0.261641
-0.26995
-0.277377
-0.283999
-0.289861
-0.295013
-0.299527
-0.30344
-0.306809
-0.309695
-0.31215
-0.314206
-0.315889
-0.317248
-0.318313
-0.319107
-0.319662
-0.320008
-0.320167
-0.320149
-0.319967
-0.319643
-0.319197
-0.318638
-0.317968
-0.317204
-0.316359
-0.315443
-0.314455
-0.313403
-0.3123
-0.311147
-0.309946
-0.308707
-0.307437
-0.306137
-0.30481
-0.303422
-0.302084
-0.300728
-0.299344
-0.297939
-0.296526
-0.295106
-0.293681
-0.292251
-0.290819
-0.289386
-0.287952
-0.286508
0.173862
0.163715
0.153734
0.143751
0.133565
0.122963
0.111813
0.0999673
0.0873573
0.0739259
0.0596529
0.0445623
0.0286658
0.012075
-0.0051604
-0.0228821
-0.0409778
-0.0592517
-0.0775417
-0.0956842
-0.11349
-0.130828
-0.147517
-0.163498
-0.178634
-0.192884
-0.206193
-0.218535
-0.229918
-0.240337
-0.24984
-0.258438
-0.266177
-0.273129
-0.279331
-0.284827
-0.289684
-0.293938
-0.297639
-0.30085
-0.303617
-0.305974
-0.307947
-0.309583
-0.310913
-0.311959
-0.312754
-0.313328
-0.313703
-0.313892
-0.313905
-0.313767
-0.313499
-0.313108
-0.312599
-0.311987
-0.311288
-0.310511
-0.309655
-0.308729
-0.307748
-0.30671
-0.305619
-0.304487
-0.30332
-0.302119
-0.300876
-0.299586
-0.298315
-0.29704
-0.295738
-0.29441
-0.293068
-0.291717
-0.290359
-0.288993
-0.287622
-0.286248
-0.28487
-0.28348
0.170549
0.160807
0.151238
0.141681
0.131947
0.121835
0.111219
0.0999599
0.0879911
0.0752571
0.0617362
0.0474461
0.0323927
0.0166735
0.00032723
-0.0165079
-0.0337353
-0.0511813
-0.0687004
-0.0861444
-0.103338
-0.120159
-0.136431
-0.152093
-0.167009
-0.181131
-0.194396
-0.20677
-0.218251
-0.228824
-0.238526
-0.247361
-0.255366
-0.262603
-0.269105
-0.274909
-0.280079
-0.284644
-0.288654
-0.292167
-0.295228
-0.29787
-0.300119
-0.302019
-0.303604
-0.304893
-0.30592
-0.306716
-0.307302
-0.307692
-0.307897
-0.307942
-0.307847
-0.307622
-0.307271
-0.30681
-0.306254
-0.305615
-0.30489
-0.304089
-0.303227
-0.302303
-0.301323
-0.300295
-0.299228
-0.298123
-0.296979
-0.295804
-0.294579
-0.29338
-0.292159
-0.290905
-0.289635
-0.288352
-0.28706
-0.285757
-0.284447
-0.283132
-0.281808
-0.280472
0.167358
0.15799
0.148799
0.139634
0.130313
0.120647
0.110516
0.0997904
0.0884037
0.076303
0.0634653
0.0499035
0.0356189
0.0206972
0.00516846
-0.0108463
-0.0272635
-0.0439291
-0.0607123
-0.0774795
-0.0940685
-0.110365
-0.126202
-0.141517
-0.156176
-0.170125
-0.183299
-0.195654
-0.20718
-0.217855
-0.227706
-0.23673
-0.244955
-0.252436
-0.259199
-0.265277
-0.270727
-0.275576
-0.279869
-0.283662
-0.286998
-0.289909
-0.292418
-0.29457
-0.296398
-0.297921
-0.299172
-0.300182
-0.300973
-0.301558
-0.30195
-0.302174
-0.302249
-0.302186
-0.30199
-0.301677
-0.301264
-0.300759
-0.300163
-0.299486
-0.298742
-0.297931
-0.297059
-0.296135
-0.295167
-0.294158
-0.293105
-0.29201
-0.290872
-0.289754
-0.288608
-0.287428
-0.286228
-0.285013
-0.283786
-0.282546
-0.281296
-0.280038
-0.27877
-0.277486
0.164283
0.15526
0.146418
0.137613
0.128671
0.119413
0.109726
0.0994857
0.0886291
0.077105
0.0648898
0.0519924
0.0384101
0.0242193
0.00944299
-0.00581253
-0.0214749
-0.037407
-0.0534911
-0.0696069
-0.0856047
-0.10138
-0.116772
-0.13172
-0.146093
-0.159835
-0.172877
-0.185169
-0.196694
-0.207426
-0.217381
-0.226549
-0.234952
-0.242637
-0.249625
-0.255943
-0.261643
-0.266748
-0.2713
-0.275351
-0.278942
-0.282103
-0.284857
-0.287248
-0.289307
-0.291052
-0.292519
-0.293735
-0.294724
-0.295499
-0.296073
-0.29647
-0.296711
-0.296807
-0.296763
-0.296595
-0.29632
-0.295949
-0.29548
-0.294924
-0.294296
-0.293597
-0.292831
-0.29201
-0.29114
-0.290225
-0.289261
-0.288253
-0.287198
-0.286157
-0.285086
-0.283979
-0.28285
-0.281701
-0.280539
-0.279361
-0.27817
-0.27697
-0.275755
-0.274524
0.161319
0.152616
0.144097
0.135623
0.12703
0.118146
0.108865
0.0990683
0.0886959
0.0776983
0.0660517
0.0537618
0.0408229
0.027303
0.0132198
-0.00133296
-0.0162924
-0.0315363
-0.0469586
-0.0624508
-0.077875
-0.093135
-0.108079
-0.122649
-0.136716
-0.150223
-0.1631
-0.175293
-0.18678
-0.197527
-0.207545
-0.216818
-0.225361
-0.233213
-0.240391
-0.246917
-0.252837
-0.25817
-0.262957
-0.267244
-0.27107
-0.274465
-0.277448
-0.280064
-0.282341
-0.284299
-0.28597
-0.287384
-0.288563
-0.289521
-0.290271
-0.290836
-0.291239
-0.29149
-0.291594
-0.291569
-0.29143
-0.291188
-0.290844
-0.290408
-0.289894
-0.289305
-0.288644
-0.287923
-0.28715
-0.286327
-0.285454
-0.284538
-0.28358
-0.28259
-0.281593
-0.280561
-0.279501
-0.278419
-0.27732
-0.276203
-0.275071
-0.273927
-0.272767
-0.271588
0.158459
0.150055
0.141835
0.133667
0.125395
0.116855
0.107947
0.0985572
0.0886282
0.0781128
0.0669869
0.0552538
0.0429053
0.0300024
0.0165586
0.00265678
-0.0116482
-0.0262473
-0.0410445
-0.0559421
-0.0708131
-0.0855694
-0.100068
-0.114253
-0.128
-0.141253
-0.153939
-0.166002
-0.177417
-0.188145
-0.198191
-0.207533
-0.21618
-0.224165
-0.231501
-0.238204
-0.244316
-0.249853
-0.254849
-0.259351
-0.263393
-0.267002
-0.2702
-0.273026
-0.275508
-0.277667
-0.279534
-0.281136
-0.282498
-0.283632
-0.284551
-0.28528
-0.285839
-0.28624
-0.286489
-0.286602
-0.286595
-0.286481
-0.286259
-0.28594
-0.285538
-0.285057
-0.284499
-0.283877
-0.2832
-0.282469
-0.281685
-0.280855
-0.279976
-0.279052
-0.278136
-0.277175
-0.276183
-0.275167
-0.274131
-0.273075
-0.272001
-0.270913
-0.269806
-0.268678
0.155698
0.147572
0.139631
0.131747
0.123771
0.115549
0.106984
0.0979682
0.0884466
0.0783737
0.0677259
0.0565043
0.044699
0.0323646
0.0195113
0.00621291
-0.00748279
-0.0214779
-0.0356857
-0.0500181
-0.0643579
-0.0786249
-0.0926847
-0.106483
-0.119902
-0.132885
-0.14536
-0.15727
-0.168585
-0.179264
-0.189305
-0.198684
-0.207404
-0.215492
-0.222956
-0.229808
-0.236085
-0.241799
-0.246984
-0.251678
-0.255916
-0.259724
-0.263119
-0.266141
-0.268817
-0.271165
-0.273217
-0.274999
-0.276535
-0.277837
-0.278919
-0.279805
-0.280516
-0.281062
-0.281451
-0.281698
-0.281821
-0.281831
-0.281728
-0.281523
-0.281232
-0.280856
-0.2804
-0.279875
-0.279291
-0.278651
-0.277953
-0.277206
-0.276404
-0.275544
-0.27471
-0.27382
-0.272898
-0.271947
-0.270973
-0.269977
-0.26896
-0.267927
-0.266873
-0.265795
0.153033
0.145167
0.137484
0.129864
0.122164
0.114235
0.105986
0.097315
0.0881684
0.0785029
0.0682949
0.0575443
0.0462397
0.03443
0.0221229
0.00938453
-0.00374354
-0.0171733
-0.030826
-0.0446221
-0.0584537
-0.0722477
-0.0858776
-0.0992921
-0.112379
-0.125082
-0.137332
-0.149069
-0.160261
-0.170865
-0.180876
-0.190263
-0.199027
-0.20719
-0.214754
-0.221728
-0.228145
-0.234014
-0.239364
-0.244231
-0.248647
-0.252635
-0.256213
-0.259417
-0.262273
-0.264799
-0.267025
-0.268977
-0.270678
-0.272141
-0.273379
-0.274416
-0.275273
-0.27596
-0.276484
-0.276862
-0.277111
-0.277241
-0.277254
-0.277161
-0.276977
-0.276704
-0.276348
-0.275919
-0.275426
-0.274874
-0.274261
-0.273598
-0.272887
-0.272148
-0.271322
-0.270497
-0.269645
-0.26876
-0.267847
-0.266909
-0.26595
-0.264971
-0.263969
-0.262941
0.150457
0.142835
0.135394
0.12802
0.120575
0.112918
0.104962
0.096609
0.0878085
0.0785188
0.0687166
0.0584006
0.0475583
0.0362339
0.0244329
0.0122147
-0.000384284
-0.0132847
-0.026415
-0.0397032
-0.0530499
-0.0663882
-0.0795997
-0.0926359
-0.10539
-0.117808
-0.129821
-0.14137
-0.15242
-0.162929
-0.172885
-0.182257
-0.19104
-0.199251
-0.206891
-0.213963
-0.220497
-0.226498
-0.231992
-0.237012
-0.241588
-0.245741
-0.249485
-0.252857
-0.25588
-0.258573
-0.260962
-0.263075
-0.264934
-0.26655
-0.267937
-0.269118
-0.270115
-0.270937
-0.271592
-0.272097
-0.272467
-0.272715
-0.272841
-0.272857
-0.272777
-0.272605
-0.272345
-0.27201
-0.271607
-0.271141
-0.270612
-0.270029
-0.269394
-0.268711
-0.267971
-0.267215
-0.266429
-0.265606
-0.264754
-0.263875
-0.26297
-0.262045
-0.261095
-0.260116
0.147969
0.140574
0.133359
0.126214
0.119007
0.111602
0.103918
0.0958599
0.0873797
0.0784374
0.0690104
0.0590961
0.0486817
0.037807
0.0264755
0.014741
0.00263567
-0.00976904
-0.0224078
-0.0352155
-0.0481002
-0.0610012
-0.0738072
-0.0864727
-0.0988969
-0.111026
-0.122795
-0.134144
-0.145039
-0.155434
-0.165316
-0.174651
-0.183431
-0.191668
-0.199361
-0.206509
-0.213138
-0.219251
-0.224869
-0.230024
-0.234742
-0.239043
-0.24294
-0.246465
-0.249644
-0.252491
-0.255034
-0.257298
-0.259305
-0.261066
-0.262595
-0.263915
-0.265045
-0.265998
-0.266778
-0.267405
-0.267893
-0.268254
-0.26849
-0.268611
-0.268634
-0.26856
-0.268395
-0.26815
-0.267835
-0.267453
-0.267006
-0.2665
-0.265937