/*--------------------------------*- C++ -*----------------------------------*\
| =========                 |                                                 |
| \\      /  F ield         | OpenFOAM: The Open Source CFD Toolbox           |
|  \\    /   O peration     | Version:  2412                                  |
|   \\  /    A nd           | Website:  www.openfoam.com                      |
|    \\/     M anipulation  |                                                 |
\*---------------------------------------------------------------------------*/
FoamFile
{
    version     2.0;
    format      ascii;
    arch        "LSB;label=32;scalar=64";
    class       volScalarField;
    location    "0.2";
    object      p;
}
// * * * * * * * * * * * * * * * * * * * * * * * * * * * * * * * * * * * * * //

dimensions      [0 2 -2 0 0 0 0];

internalField   nonuniform List<scalar> 
257400
(
0.179695
-0.0144804
-0.187473
-0.32611
-0.429217
-0.500308
-0.546792
-0.573975
-0.589908
-0.598592
-0.601992
-0.601667
-0.598478
-0.594711
-0.588957
-0.583494
-0.576948
-0.570883
-0.564681
-0.558384
-0.552164
-0.545999
-0.540344
-0.534367
-0.528839
-0.523171
-0.517775
-0.512513
-0.507255
-0.502364
-0.497404
-0.492667
-0.487968
-0.483197
-0.478637
-0.47426
-0.469805
-0.46559
-0.461481
-0.457411
-0.453327
-0.449271
-0.445403
-0.44153
-0.437723
-0.434072
-0.430476
-0.426915
-0.423332
-0.419815
-0.416429
-0.413088
-0.409751
-0.406442
-0.403263
-0.40013
-0.397004
-0.393849
-0.390823
-0.38784
-0.384815
-0.381886
-0.379022
-0.376185
-0.373338
-0.370503
-0.367751
-0.364989
-0.36239
-0.359638
-0.357032
-0.354465
-0.351861
-0.34933
-0.346775
-0.3443
-0.341821
-0.339385
-0.336999
-0.334633
0.197428
0.0509035
-0.0929022
-0.2235
-0.334811
-0.42253
-0.487585
-0.531421
-0.560055
-0.577867
-0.587504
-0.591932
-0.59229
-0.590928
-0.587253
-0.583036
-0.577586
-0.572038
-0.566233
-0.560222
-0.554163
-0.548009
-0.542419
-0.536423
-0.530922
-0.52534
-0.51999
-0.514772
-0.509538
-0.50463
-0.499723
-0.49488
-0.490067
-0.485309
-0.480803
-0.476387
-0.471938
-0.467644
-0.46345
-0.459325
-0.455232
-0.451167
-0.447233
-0.443325
-0.439469
-0.435725
-0.432044
-0.42842
-0.424814
-0.421255
-0.417786
-0.414365
-0.410995
-0.407639
-0.404374
-0.401169
-0.397991
-0.394791
-0.391705
-0.388689
-0.385604
-0.382641
-0.379747
-0.376879
-0.373997
-0.371119
-0.368327
-0.365503
-0.362828
-0.360063
-0.357387
-0.354752
-0.352107
-0.34952
-0.346927
-0.344399
-0.341879
-0.339397
-0.336956
-0.33453
0.230166
0.116311
-0.0142192
-0.136572
-0.248878
-0.345499
-0.423538
-0.481518
-0.522526
-0.550251
-0.567926
-0.578481
-0.583162
-0.584759
-0.583219
-0.580511
-0.576229
-0.571485
-0.566335
-0.560856
-0.555242
-0.549408
-0.543907
-0.538184
-0.532696
-0.527021
-0.52156
-0.516247
-0.510994
-0.506084
-0.50113
-0.496244
-0.491384
-0.486758
-0.482164
-0.477693
-0.473179
-0.468853
-0.464635
-0.460479
-0.456338
-0.452216
-0.448255
-0.444306
-0.440405
-0.436635
-0.432926
-0.429269
-0.425614
-0.422012
-0.418515
-0.415083
-0.41165
-0.408265
-0.404989
-0.401768
-0.398588
-0.395332
-0.392242
-0.389186
-0.386098
-0.383065
-0.380098
-0.377179
-0.374268
-0.371364
-0.368538
-0.36569
-0.362988
-0.360191
-0.357489
-0.354835
-0.352164
-0.349556
-0.346937
-0.344386
-0.341839
-0.339328
-0.336858
-0.334387
0.252836
0.159587
0.0535087
-0.0556609
-0.161131
-0.259126
-0.345463
-0.415948
-0.470154
-0.509894
-0.537473
-0.555845
-0.566699
-0.572882
-0.574764
-0.574521
-0.572075
-0.568637
-0.564444
-0.559674
-0.554609
-0.54916
-0.543962
-0.538458
-0.533187
-0.527831
-0.522563
-0.517382
-0.511974
-0.507019
-0.501984
-0.497071
-0.492377
-0.487871
-0.483228
-0.478754
-0.474233
-0.469887
-0.465648
-0.461473
-0.457321
-0.453177
-0.449197
-0.445225
-0.441292
-0.43749
-0.433748
-0.430063
-0.426379
-0.422743
-0.419214
-0.415743
-0.412286
-0.408851
-0.405542
-0.402311
-0.399075
-0.395819
-0.39264
-0.389543
-0.386422
-0.383367
-0.380378
-0.377434
-0.374498
-0.371564
-0.368713
-0.36583
-0.363102
-0.360277
-0.357545
-0.354865
-0.352164
-0.349532
-0.346884
-0.344307
-0.341734
-0.339192
-0.336693
-0.334182
0.264763
0.189394
0.106251
0.00842081
-0.0853087
-0.177277
-0.264363
-0.341528
-0.405725
-0.456539
-0.49472
-0.522311
-0.540913
-0.553275
-0.560035
-0.563423
-0.563749
-0.562341
-0.559673
-0.556062
-0.551913
-0.547163
-0.542486
-0.537402
-0.532442
-0.527316
-0.522219
-0.517219
-0.512059
-0.50715
-0.502062
-0.497244
-0.492792
-0.488211
-0.483587
-0.479149
-0.474651
-0.470315
-0.466079
-0.461907
-0.45776
-0.453614
-0.44963
-0.445655
-0.441712
-0.437894
-0.434136
-0.430435
-0.426734
-0.423078
-0.419526
-0.41603
-0.412559
-0.409111
-0.405807
-0.4025
-0.399248
-0.395974
-0.392787
-0.389679
-0.38654
-0.383462
-0.38045
-0.377484
-0.37453
-0.371575
-0.368707
-0.365801
-0.363055
-0.360211
-0.357455
-0.354757
-0.352036
-0.349384
-0.346716
-0.344117
-0.341522
-0.338955
-0.336435
-0.333889
0.269345
0.206639
0.137382
0.0587599
-0.0256821
-0.108268
-0.190054
-0.267494
-0.336481
-0.394998
-0.442198
-0.47879
-0.505589
-0.524956
-0.537721
-0.545877
-0.550002
-0.551487
-0.551038
-0.54914
-0.546335
-0.542636
-0.538761
-0.534338
-0.529893
-0.52521
-0.520473
-0.515774
-0.510891
-0.506116
-0.501224
-0.496623
-0.492269
-0.487648
-0.483109
-0.478752
-0.474321
-0.470034
-0.465839
-0.461701
-0.457589
-0.45347
-0.449507
-0.445554
-0.441626
-0.437817
-0.434065
-0.430369
-0.426671
-0.423014
-0.419455
-0.41594
-0.412456
-0.408995
-0.405662
-0.402363
-0.399117
-0.395841
-0.392642
-0.389523
-0.386375
-0.383287
-0.380263
-0.377286
-0.374324
-0.371357
-0.368481
-0.365561
-0.362804
-0.359951
-0.357181
-0.354472
-0.351738
-0.349074
-0.346392
-0.343779
-0.341171
-0.338585
-0.336053
-0.333481
0.269463
0.216395
0.158631
0.0942959
0.018122
-0.0537201
-0.127324
-0.200365
-0.269233
-0.331215
-0.384325
-0.428061
-0.462338
-0.48863
-0.507746
-0.52136
-0.530111
-0.535298
-0.537788
-0.538212
-0.537249
-0.535025
-0.532293
-0.528824
-0.525134
-0.52109
-0.51687
-0.512593
-0.508074
-0.503646
-0.499108
-0.494745
-0.490412
-0.485952
-0.481568
-0.47734
-0.47303
-0.468841
-0.46473
-0.460665
-0.456625
-0.452572
-0.448659
-0.444759
-0.440877
-0.437104
-0.433383
-0.429715
-0.426046
-0.422413
-0.418873
-0.415369
-0.411855
-0.408389
-0.405058
-0.401787
-0.398564
-0.395303
-0.392111
-0.388998
-0.385859
-0.382775
-0.379752
-0.376776
-0.373818
-0.370852
-0.367978
-0.365058
-0.362298
-0.359448
-0.356674
-0.353963
-0.351227
-0.348559
-0.345875
-0.343256
-0.340643
-0.338048
-0.335514
-0.332928
0.266991
0.221365
0.172213
0.118386
0.058611
-0.0107866
-0.0765845
-0.142925
-0.208368
-0.270145
-0.325804
-0.374056
-0.414064
-0.446378
-0.471429
-0.490461
-0.504173
-0.513595
-0.519606
-0.522912
-0.524283
-0.523964
-0.522736
-0.520532
-0.517855
-0.514672
-0.511171
-0.507502
-0.503514
-0.499474
-0.495452
-0.491309
-0.48717
-0.482979
-0.47881
-0.474766
-0.470635
-0.466597
-0.462619
-0.458673
-0.454747
-0.450802
-0.446977
-0.443162
-0.43936
-0.435655
-0.431994
-0.428382
-0.424769
-0.421189
-0.417694
-0.414233
-0.410748
-0.407267
-0.403917
-0.400695
-0.39752
-0.394298
-0.391133
-0.388042
-0.384928
-0.381864
-0.378858
-0.375895
-0.372955
-0.370005
-0.367146
-0.364241
-0.361488
-0.358655
-0.355888
-0.353186
-0.35046
-0.3478
-0.345123
-0.342509
-0.339903
-0.337309
-0.334786
-0.332197
0.263001
0.223213
0.18074
0.134467
0.0827087
0.0222208
-0.0364023
-0.0958792
-0.156014
-0.214964
-0.270366
-0.320507
-0.364075
-0.400858
-0.430871
-0.454769
-0.473167
-0.4869
-0.496723
-0.503297
-0.507395
-0.509358
-0.509972
-0.50933
-0.507923
-0.505824
-0.503239
-0.500348
-0.49699
-0.493607
-0.489946
-0.486182
-0.482443
-0.478606
-0.474729
-0.470935
-0.467046
-0.463216
-0.459422
-0.455643
-0.451876
-0.448082
-0.444382
-0.44069
-0.437003
-0.433396
-0.429826
-0.426298
-0.422771
-0.41927
-0.415844
-0.412447
-0.409031
-0.405582
-0.402205
-0.399041
-0.395931
-0.392772
-0.389655
-0.386604
-0.383532
-0.380506
-0.377533
-0.3746
-0.371692
-0.368773
-0.365943
-0.363067
-0.360333
-0.35753
-0.354785
-0.352103
-0.3494
-0.346759
-0.344103
-0.341505
-0.338919
-0.336338
-0.333838
-0.33126
0.258137
0.223006
0.185809
0.145702
0.10201
0.0538862
-0.00502073
-0.0584462
-0.112555
-0.167155
-0.220291
-0.270149
-0.315211
-0.354727
-0.388356
-0.416226
-0.43871
-0.456359
-0.469898
-0.479854
-0.4869
-0.491412
-0.494137
-0.495308
-0.4954
-0.494585
-0.493116
-0.49126
-0.489093
-0.486148
-0.482731
-0.479505
-0.476248
-0.472824
-0.469315
-0.465836
-0.462249
-0.458682
-0.455122
-0.451557
-0.447992
-0.444391
-0.440856
-0.43732
-0.433783
-0.430306
-0.426856
-0.423441
-0.420026
-0.416632
-0.413295
-0.409982
-0.406643
-0.403262
-0.399896
-0.396778
-0.393754
-0.390691
-0.387651
-0.384658
-0.381647
-0.378675
-0.375751
-0.372863
-0.370002
-0.36713
-0.36434
-0.36151
-0.358807
-0.356048
-0.353338
-0.350689
-0.34802
-0.34541
-0.342789
-0.340219
-0.337665
-0.335111
-0.332644
-0.330093
0.2528
0.221461
0.188552
0.153377
0.115172
0.0729892
0.0262864
-0.0276671
-0.0771995
-0.126901
-0.176549
-0.224573
-0.269458
-0.310121
-0.345962
-0.376697
-0.402459
-0.423468
-0.440282
-0.45342
-0.463407
-0.470576
-0.475583
-0.478746
-0.480517
-0.48114
-0.480856
-0.479906
-0.478616
-0.47642
-0.473946
-0.47139
-0.46864
-0.465701
-0.462634
-0.459532
-0.456302
-0.453047
-0.449767
-0.446461
-0.443137
-0.439767
-0.436431
-0.433085
-0.429729
-0.426411
-0.423109
-0.419832
-0.416555
-0.413289
-0.410068
-0.406866
-0.403659
-0.400435
-0.397243
-0.393939
-0.390983
-0.388049
-0.385117
-0.382204
-0.37927
-0.376369
-0.373509
-0.37068
-0.36788
-0.365069
-0.362333
-0.359561
-0.356902
-0.354198
-0.351537
-0.348931
-0.346311
-0.343743
-0.341168
-0.338638
-0.336128
-0.333613
-0.33119
-0.328679
0.247238
0.219027
0.189617
0.158382
0.124635
0.0876957
0.0470227
0.00140469
-0.0477475
-0.0935979
-0.139259
-0.184441
-0.227926
-0.268459
-0.305263
-0.337762
-0.365894
-0.389585
-0.409182
-0.425063
-0.437729
-0.447472
-0.454805
-0.460052
-0.463622
-0.465821
-0.467037
-0.467539
-0.466555
-0.465364
-0.463816
-0.461923
-0.459765
-0.457384
-0.454815
-0.452142
-0.449315
-0.446419
-0.443461
-0.44045
-0.437403
-0.434295
-0.43119
-0.428062
-0.424912
-0.421779
-0.418649
-0.415534
-0.412415
-0.409299
-0.406213
-0.403139
-0.400063
-0.396966
-0.393887
-0.390769
-0.387716
-0.384868
-0.382075
-0.379268
-0.376429
-0.373613
-0.370829
-0.368072
-0.365343
-0.362606
-0.359934
-0.357233
-0.354628
-0.35199
-0.349389
-0.346836
-0.344274
-0.341759
-0.339241
-0.336761
-0.334305
-0.331841
-0.329471
-0.327012
0.241609
0.216013
0.189502
0.161529
0.131493
0.0987776
0.0629929
0.023752
-0.0198375
-0.0656784
-0.108103
-0.149925
-0.19111
-0.230525
-0.267265
-0.300557
-0.330188
-0.355837
-0.377653
-0.395862
-0.410805
-0.422822
-0.432364
-0.439698
-0.445154
-0.449133
-0.451739
-0.452787
-0.453194
-0.453146
-0.45245
-0.4513
-0.449817
-0.448044
-0.446016
-0.443819
-0.441436
-0.438935
-0.436335
-0.433652
-0.430909
-0.428091
-0.425243
-0.422356
-0.419434
-0.416508
-0.41357
-0.410635
-0.407692
-0.404743
-0.401806
-0.398876
-0.395945
-0.393001
-0.390075
-0.387112
-0.384071
-0.381155
-0.378515
-0.375857
-0.373152
-0.370445
-0.367751
-0.365076
-0.362429
-0.359775
-0.357176
-0.354554
-0.352012
-0.349449
-0.346916
-0.344426
-0.34193
-0.339476
-0.337024
-0.334603
-0.332208
-0.329804
-0.327493
-0.325097
0.236013
0.212628
0.188554
0.163306
0.136343
0.107095
0.0752489
0.0404527
0.00293421
-0.0381999
-0.0820566
-0.121009
-0.159448
-0.19686
-0.232597
-0.265807
-0.296146
-0.323062
-0.34652
-0.3666
-0.38348
-0.397453
-0.408913
-0.418172
-0.42549
-0.430996
-0.434668
-0.437277
-0.439001
-0.439904
-0.44009
-0.439756
-0.438991
-0.437858
-0.436409
-0.434726
-0.432819
-0.430745
-0.42853
-0.426203
-0.423789
-0.421279
-0.41871
-0.416084
-0.413408
-0.410706
-0.407978
-0.405239
-0.402484
-0.399713
-0.396941
-0.394167
-0.391391
-0.388604
-0.385832
-0.383065
-0.380321
-0.377514
-0.374601
-0.372035
-0.369493
-0.366917
-0.364328
-0.361746
-0.359186
-0.356622
-0.354104
-0.351568
-0.349097
-0.346613
-0.344155
-0.341733
-0.33931
-0.336924
-0.334542
-0.332187
-0.32986
-0.327523
-0.325276
-0.32295
0.230514
0.209017
0.187011
0.164059
0.139669
0.113316
0.0847177
0.053552
0.0199482
-0.015695
-0.0533217
-0.0953688
-0.13288
-0.167973
-0.202015
-0.234255
-0.264504
-0.29199
-0.31651
-0.338006
-0.356457
-0.372075
-0.38526
-0.396018
-0.404861
-0.411747
-0.417055
-0.421085
-0.423938
-0.425842
-0.42698
-0.427486
-0.42746
-0.426998
-0.426158
-0.425018
-0.423612
-0.421988
-0.420184
-0.418234
-0.416167
-0.413983
-0.41171
-0.40936
-0.406945
-0.40448
-0.401975
-0.399444
-0.396888
-0.394307
-0.391709
-0.389101
-0.386486
-0.383858
-0.381234
-0.3786
-0.375951
-0.373262
-0.370574
-0.367966
-0.365522
-0.363086
-0.360617
-0.358139
-0.355674
-0.353204
-0.35077
-0.348324
-0.345928
-0.343528
-0.341149
-0.3388
-0.336454
-0.334139
-0.331832
-0.329547
-0.327291
-0.325026
-0.322844
-0.320593
0.22515
0.205282
0.185046
0.164048
0.141837
0.117931
0.0920629
0.0639399
0.0335893
0.00112433
-0.0329243
-0.0675454
-0.104864
-0.14252
-0.176179
-0.206896
-0.236352
-0.263637
-0.288558
-0.311007
-0.330685
-0.346973
-0.361373
-0.373802
-0.38394
-0.39226
-0.398986
-0.404252
-0.408249
-0.41121
-0.413302
-0.414654
-0.415388
-0.415617
-0.415406
-0.414831
-0.413943
-0.41279
-0.411415
-0.409858
-0.408155
-0.40631
-0.404347
-0.402286
-0.400141
-0.397927
-0.395654
-0.393342
-0.390994
-0.388608
-0.386194
-0.383758
-0.381309
-0.378841
-0.376364
-0.373872
-0.371373
-0.368859
-0.366332
-0.363748
-0.361316
-0.358998
-0.356665
-0.354308
-0.351947
-0.349574
-0.347227
-0.344873
-0.342558
-0.340243
-0.337944
-0.335671
-0.333404
-0.331163
-0.328932
-0.32672
-0.324536
-0.322345
-0.32023
-0.318056
0.219945
0.201493
0.182786
0.163466
0.143118
0.121297
0.0977493
0.0721985
0.0446259
0.015066
-0.0161864
-0.0487614
-0.0818113
-0.113817
-0.146757
-0.179539
-0.209155
-0.236469
-0.261385
-0.283745
-0.304075
-0.322773
-0.338512
-0.351891
-0.363207
-0.372746
-0.380642
-0.387064
-0.392188
-0.39618
-0.399209
-0.40141
-0.402916
-0.403848
-0.404277
-0.40428
-0.403924
-0.403256
-0.402323
-0.401174
-0.399845
-0.398351
-0.396709
-0.394947
-0.393081
-0.391125
-0.389095
-0.387009
-0.384875
-0.382691
-0.380465
-0.378208
-0.375929
-0.373625
-0.371303
-0.368962
-0.366613
-0.364253
-0.361889
-0.359529
-0.3571
-0.354741
-0.352527
-0.350305
-0.348055
-0.345783
-0.343526
-0.341265
-0.339031
-0.336802
-0.334586
-0.33239
-0.330202
-0.328036
-0.325882
-0.323743
-0.321632
-0.319516
-0.317467
-0.315369
0.214911
0.197699
0.180323
0.162455
0.143712
0.123683
0.102127
0.0787821
0.0536107
0.0266027
-0.00207513
-0.0320579
-0.0629158
-0.0941674
-0.125332
-0.155229
-0.183861
-0.210962
-0.236317
-0.259684
-0.280813
-0.299626
-0.31601
-0.330369
-0.342777
-0.353382
-0.362324
-0.369791
-0.375945
-0.38091
-0.38485
-0.387892
-0.390166
-0.391801
-0.392873
-0.393463
-0.393647
-0.393472
-0.392991
-0.392258
-0.391314
-0.390177
-0.388865
-0.387409
-0.38583
-0.38414
-0.382358
-0.380505
-0.37859
-0.376614
-0.374581
-0.372507
-0.370402
-0.368266
-0.366101
-0.363912
-0.36171
-0.359493
-0.357264
-0.355017
-0.352739
-0.350432
-0.34827
-0.346173
-0.344042
-0.341875
-0.339711
-0.337542
-0.335391
-0.333247
-0.331114
-0.328996
-0.326887
-0.324796
-0.322717
-0.320652
-0.318613
-0.316571
-0.314586
-0.312563
0.210055
0.193936
0.177726
0.161124
0.143774
0.125295
0.105461
0.084024
0.0609313
0.0361539
0.00979617
-0.0178854
-0.0466518
-0.0758849
-0.105136
-0.133922
-0.161936
-0.18856
-0.213574
-0.236782
-0.257986
-0.277181
-0.294317
-0.309528
-0.322816
-0.334337
-0.344224
-0.352631
-0.359703
-0.365562
-0.370365
-0.374217
-0.377243
-0.379572
-0.381284
-0.382461
-0.383186
-0.383509
-0.383485
-0.383175
-0.382622
-0.381847
-0.380871
-0.379728
-0.378441
-0.377022
-0.375494
-0.373878
-0.372187
-0.370421
-0.368587
-0.366699
-0.364772
-0.362805
-0.3608
-0.358763
-0.356707
-0.354631
-0.352536
-0.350424
-0.348296
-0.346152
-0.343926
-0.341936
-0.339928
-0.337879
-0.335814
-0.333738
-0.331672
-0.329613
-0.327562
-0.325522
-0.323491
-0.321474
-0.319471
-0.317478
-0.315509
-0.313539
-0.311618
-0.309667
0.205376
0.190227
0.175046
0.159554
0.143422
0.126294
0.107958
0.0881798
0.0668962
0.0440676
0.0197536
-0.00585089
-0.0325337
-0.0598178
-0.087445
-0.114917
-0.14182
-0.167652
-0.192185
-0.215205
-0.236506
-0.256031
-0.273659
-0.28947
-0.303462
-0.315766
-0.326474
-0.335713
-0.343614
-0.350288
-0.355884
-0.360498
-0.364244
-0.367248
-0.369588
-0.371345
-0.372608
-0.373427
-0.373863
-0.373977
-0.373817
-0.373409
-0.372772
-0.371945
-0.370953
-0.36981
-0.36854
-0.367165
-0.365701
-0.364149
-0.362516
-0.360818
-0.35907
-0.357274
-0.355431
-0.353548
-0.351638
-0.349705
-0.347747
-0.345768
-0.343775
-0.341774
-0.339764
-0.337672
-0.335748
-0.333824
-0.331864
-0.329881
-0.3279
-0.325925
-0.323956
-0.321994
-0.32004
-0.318098
-0.316168
-0.314246
-0.312346
-0.310447
-0.308587
-0.306706
0.200872
0.186589
0.172321
0.157809
0.142746
0.126803
0.109778
0.0914514
0.071752
0.050634
0.0281312
0.00439331
-0.0204228
-0.0459531
-0.0719606
-0.0979802
-0.123692
-0.148657
-0.172606
-0.1953
-0.216512
-0.236137
-0.254043
-0.270288
-0.284838
-0.297782
-0.309185
-0.319148
-0.327789
-0.3352
-0.34152
-0.346836
-0.351258
-0.354907
-0.357854
-0.360178
-0.36197
-0.363279
-0.364171
-0.364708
-0.364942
-0.3649
-0.364604
-0.364095
-0.363401
-0.362535
-0.361525
-0.360395
-0.35916
-0.357824
-0.356394
-0.354888
-0.353322
-0.351699
-0.350018
-0.348291
-0.34653
-0.344739
-0.342916
-0.341068
-0.339201
-0.337312
-0.335381
-0.333397
-0.331551
-0.329734
-0.327879
-0.325993
-0.324098
-0.322207
-0.320319
-0.318434
-0.316556
-0.314688
-0.31283
-0.310978
-0.309145
-0.307314
-0.305515
-0.303701
0.196541
0.183033
0.169579
0.155937
0.141821
0.126921
0.11105
0.0939993
0.0756951
0.0560855
0.0351885
0.0131155
-0.0100183
-0.0339104
-0.0583611
-0.0829828
-0.107506
-0.131523
-0.15476
-0.176973
-0.197928
-0.217498
-0.235535
-0.252067
-0.267027
-0.280474
-0.292448
-0.30303
-0.312317
-0.320386
-0.327362
-0.333323
-0.338371
-0.342622
-0.346146
-0.349017
-0.351322
-0.353112
-0.354452
-0.355408
-0.356032
-0.356354
-0.356398
-0.356207
-0.355811
-0.355224
-0.354475
-0.35359
-0.352585
-0.351467
-0.350242
-0.348929
-0.347546
-0.346097
-0.344581
-0.34301
-0.341397
-0.339749
-0.338062
-0.336342
-0.334599
-0.332831
-0.33104
-0.329232
-0.327353
-0.325617
-0.323871
-0.322086
-0.32028
-0.318472
-0.316664
-0.314857
-0.313055
-0.311259
-0.309472
-0.30769
-0.305922
-0.304158
-0.302418
-0.300667
0.192375
0.179566
0.166842
0.153977
0.1407
0.126725
0.111875
0.0959524
0.0788822
0.0606086
0.0411384
0.0205561
-0.00105296
-0.0234368
-0.046438
-0.0697264
-0.0930635
-0.116084
-0.13853
-0.160162
-0.180744
-0.200134
-0.218169
-0.234847
-0.25008
-0.263904
-0.276336
-0.287432
-0.297272
-0.305917
-0.313481
-0.320027
-0.325651
-0.330462
-0.334526
-0.337914
-0.340712
-0.342967
-0.344744
-0.34611
-0.347118
-0.3478
-0.348181
-0.348307
-0.348206
-0.347897
-0.34741
-0.34677
-0.345997
-0.345096
-0.344076
-0.342958
-0.341758
-0.340483
-0.339132
-0.337718
-0.336255
-0.334749
-0.333198
-0.331607
-0.329989
-0.328343
-0.326671
-0.32497
-0.323243
-0.321507
-0.319852
-0.318172
-0.316458
-0.314734
-0.313005
-0.311275
-0.309548
-0.307824
-0.306107
-0.304393
-0.30269
-0.300991
-0.299309
-0.297619
0.188369
0.176193
0.164126
0.151956
0.13943
0.126279
0.112335
0.0974146
0.0814405
0.0643552
0.0461573
0.026912
0.00668084
-0.0143256
-0.0359821
-0.0580038
-0.0801846
-0.102203
-0.123817
-0.144801
-0.164919
-0.184024
-0.201939
-0.218643
-0.234032
-0.248118
-0.260899
-0.27241
-0.282714
-0.291856
-0.299936
-0.307007
-0.313154
-0.318481
-0.323047
-0.326921
-0.330185
-0.332885
-0.335084
-0.336849
-0.338231
-0.339266
-0.339978
-0.340416
-0.340609
-0.340576
-0.340347
-0.339952
-0.339409
-0.338725
-0.337911
-0.336987
-0.335971
-0.33487
-0.333684
-0.332427
-0.331114
-0.32975
-0.328335
-0.326874
-0.32538
-0.323853
-0.322293
-0.320704
-0.319082
-0.317411
-0.315842
-0.314259
-0.312639
-0.311
-0.30935
-0.307696
-0.306044
-0.304392
-0.302744
-0.301097
-0.299457
-0.297822
-0.296198
-0.294567
0.184517
0.172916
0.161443
0.149899
0.138047
0.125632
0.112498
0.0984701
0.0834737
0.0674496
0.0503897
0.0323455
0.0133596
-0.00638997
-0.026803
-0.0476346
-0.0687081
-0.0897389
-0.110507
-0.130798
-0.150386
-0.169123
-0.186824
-0.203454
-0.218895
-0.233141
-0.246173
-0.258006
-0.268687
-0.278249
-0.286776
-0.294311
-0.300929
-0.306725
-0.311755
-0.31608
-0.319781
-0.322903
-0.325504
-0.327652
-0.329398
-0.330776
-0.331813
-0.332556
-0.333037
-0.333276
-0.333304
-0.333151
-0.332836
-0.332369
-0.331758
-0.331027
-0.330195
-0.329267
-0.328247
-0.327147
-0.325982
-0.324761
-0.323481
-0.322149
-0.320779
-0.319369
-0.317922
-0.316446
-0.314947
-0.313431
-0.311852
-0.310355
-0.308832
-0.307277
-0.305706
-0.304128
-0.302549
-0.300968
-0.299389
-0.297808
-0.296232
-0.294658
-0.293091
-0.291518
0.180811
0.169734
0.158801
0.147823
0.136577
0.124824
0.112416
0.0991879
0.0850669
0.069994
0.0539556
0.0369926
0.0191337
0.000530665
-0.0187369
-0.038458
-0.0584808
-0.0785538
-0.0984773
-0.118054
-0.137068
-0.155376
-0.172789
-0.189262
-0.204667
-0.218983
-0.232176
-0.244246
-0.255226
-0.265134
-0.27404
-0.281979
-0.289014
-0.295233
-0.300686
-0.305428
-0.309537
-0.313053
-0.316036
-0.318549
-0.320643
-0.322353
-0.323704
-0.324746
-0.325509
-0.326015
-0.326296
-0.326381
-0.326292
-0.326038
-0.32563
-0.325091
-0.32444
-0.323685
-0.322829
-0.321885
-0.320869
-0.319789
-0.318644
-0.317441
-0.316193
-0.314901
-0.313567
-0.3122
-0.310803
-0.309362
-0.307863
-0.306467
-0.305036
-0.303568
-0.302077
-0.300574
-0.299069
-0.297558
-0.296047
-0.294532
-0.293018
-0.291505
-0.289995
-0.288478
0.177246
0.166648
0.156206
0.145743
0.135045
0.123888
0.112133
0.0996247
0.0862904
0.0720728
0.0569545
0.0409672
0.02413
0.00657274
-0.0116415
-0.0303301
-0.0493624
-0.0685165
-0.087612
-0.106469
-0.124884
-0.142718
-0.159787
-0.176035
-0.191329
-0.205638
-0.218915
-0.231146
-0.242351
-0.252535
-0.261758
-0.270042
-0.277443
-0.284038
-0.289873
-0.294996
-0.299482
-0.303367
-0.306707
-0.309565
-0.311991
-0.314019
-0.315674
-0.317004
-0.318042
-0.318808
-0.319336
-0.319655
-0.319787
-0.319744
-0.319536
-0.319186
-0.318715
-0.318132
-0.317438
-0.316649
-0.31578
-0.314841
-0.313829
-0.312754
-0.311629
-0.310454
-0.309231
-0.307971
-0.306678
-0.305357
-0.304013
-0.302603
-0.301253
-0.299877
-0.298468
-0.29704
-0.295607
-0.294166
-0.292722
-0.291272
-0.28982
-0.288368
-0.286914
-0.285451
0.173814
0.163656
0.153664
0.143668
0.133468
0.122852
0.111687
0.0998272
0.0872026
0.0737566
0.0594695
0.0443652
0.0284557
0.011853
-0.00539319
-0.0231241
-0.0412274
-0.0595067
-0.0777999
-0.0959431
-0.113747
-0.131081
-0.147763
-0.163734
-0.178858
-0.193093
-0.206386
-0.21871
-0.230073
-0.240471
-0.249951
-0.258525
-0.26624
-0.273166
-0.279341
-0.284811
-0.289641
-0.293867
-0.297541
-0.300724
-0.303463
-0.305793
-0.307739
-0.309347
-0.31065
-0.311669
-0.312437
-0.312985
-0.313334
-0.313497
-0.313485
-0.313322
-0.313029
-0.312614
-0.312081
-0.311445
-0.310722
-0.309923
-0.309044
-0.308095
-0.307091
-0.306032
-0.30492
-0.303766
-0.302578
-0.301356
-0.300081
-0.298742
-0.297492
-0.296202
-0.294877
-0.293527
-0.292166
-0.290795
-0.289417
-0.288032
-0.286642
-0.285248
-0.28385
-0.282442
0.170509
0.160757
0.151176
0.141608
0.131861
0.121736
0.111107
0.0998342
0.0878517
0.0751043
0.0615702
0.0472673
0.0322018
0.0164714
0.000114927
-0.016729
-0.0339637
-0.0514151
-0.0689375
-0.0863828
-0.103575
-0.120392
-0.136658
-0.152312
-0.167217
-0.181326
-0.194577
-0.206934
-0.218396
-0.228949
-0.23863
-0.247442
-0.255424
-0.262637
-0.269113
-0.274892
-0.280036
-0.284574
-0.288558
-0.292044
-0.295078
-0.297694
-0.299916
-0.30179
-0.303348
-0.304611
-0.305612
-0.306382
-0.306943
-0.307307
-0.307488
-0.307508
-0.307389
-0.30714
-0.306765
-0.30628
-0.305702
-0.305039
-0.304292
-0.303469
-0.302585
-0.30164
-0.300638
-0.299589
-0.298501
-0.297376
-0.296216
-0.295033
-0.293767
-0.292547
-0.29131
-0.290039
-0.288749
-0.287447
-0.286135
-0.284813
-0.283484
-0.282149
-0.280807
-0.279452
0.167325
0.157947
0.148746
0.13957
0.130237
0.120559
0.110417
0.0996779
0.0882785
0.0761653
0.0633154
0.0497417
0.0354457
0.0205135
0.00497515
-0.0110479
-0.0274721
-0.044143
-0.0609297
-0.0776984
-0.0942868
-0.110581
-0.126413
-0.14172
-0.156369
-0.170307
-0.183467
-0.195806
-0.207315
-0.217972
-0.227803
-0.236805
-0.245008
-0.252466
-0.259205
-0.265259
-0.270684
-0.275507
-0.279775
-0.283542
-0.286852
-0.289737
-0.29222
-0.294347
-0.296148
-0.297646
-0.298872
-0.299856
-0.300623
-0.301183
-0.301551
-0.30175
-0.301801
-0.301715
-0.301496
-0.30116
-0.300723
-0.300196
-0.299578
-0.298879
-0.298113
-0.297281
-0.296388
-0.295443
-0.294455
-0.293426
-0.292356
-0.291237
-0.290069
-0.288934
-0.287775
-0.286577
-0.285358
-0.284124
-0.282878
-0.281619
-0.28035
-0.279074
-0.277786
-0.276485
0.164256
0.155225
0.146373
0.137557
0.128605
0.119336
0.109638
0.0993854
0.088517
0.0769813
0.0647546
0.0518461
0.0382533
0.0240527
0.00926729
-0.00599613
-0.0216651
-0.0376024
-0.05369
-0.0698075
-0.085805
-0.101577
-0.116965
-0.131907
-0.146272
-0.160003
-0.173032
-0.18531
-0.19682
-0.207534
-0.21747
-0.226618
-0.235001
-0.242663
-0.249629
-0.255923
-0.261599
-0.266679
-0.271207
-0.275233
-0.278799
-0.281935
-0.284664
-0.28703
-0.289063
-0.290784
-0.292226
-0.293417
-0.294382
-0.295133
-0.295682
-0.296056
-0.296274
-0.296347
-0.29628
-0.296089
-0.295792
-0.295398
-0.294907
-0.29433
-0.293681
-0.292961
-0.292174
-0.291332
-0.290442
-0.289507
-0.288522
-0.287489
-0.286415
-0.28536
-0.28427
-0.283144
-0.281995
-0.280828
-0.279647
-0.278451
-0.277241
-0.276022
-0.27479
-0.273541
0.161297
0.152587
0.144059
0.135576
0.126972
0.118078
0.108787
0.0989792
0.0885959
0.0775875
0.0659302
0.05363
0.0406812
0.0271521
0.0130604
-0.00149976
-0.0164655
-0.0317144
-0.0471401
-0.0626342
-0.0780584
-0.0933164
-0.108257
-0.122821
-0.13688
-0.150378
-0.163243
-0.175423
-0.186895
-0.197626
-0.207627
-0.216881
-0.225404
-0.233235
-0.240391
-0.246895
-0.252792
-0.258102
-0.262865
-0.267128
-0.27093
-0.2743
-0.277259
-0.279851
-0.282103
-0.284036
-0.285684
-0.287074
-0.288229
-0.289163
-0.289889
-0.290432
-0.290812
-0.29104
-0.291121
-0.291073
-0.290912
-0.290649
-0.290283
-0.289826
-0.289291
-0.288681
-0.288
-0.287259
-0.286465
-0.285623
-0.284728
-0.283786
-0.282788
-0.28181
-0.280793
-0.27974
-0.278662
-0.277562
-0.276445
-0.27531
-0.274159
-0.272997
-0.271819
-0.270621
0.158443
0.150031
0.141803
0.133627
0.125345
0.116796
0.107878
0.0984784
0.0885394
0.0780139
0.0668781
0.0551353
0.0427777
0.0298662
0.0164144
0.00250563
-0.0118054
-0.0264092
-0.0412097
-0.0561092
-0.0709804
-0.0857353
-0.100231
-0.11441
-0.128151
-0.141394
-0.15407
-0.166121
-0.177522
-0.188235
-0.198264
-0.207588
-0.216217
-0.224183
-0.231498
-0.238179
-0.244269
-0.249784
-0.254758
-0.259236
-0.263254
-0.266841
-0.270014
-0.272817
-0.275275
-0.277411
-0.279254
-0.280833
-0.282171
-0.283282
-0.284178
-0.284884
-0.285421
-0.2858
-0.286026
-0.286117
-0.286089
-0.285953
-0.28571
-0.285369
-0.284948
-0.284445
-0.283868
-0.283226
-0.282528
-0.281777
-0.280974
-0.280128
-0.279244
-0.278291
-0.277346
-0.276368
-0.27536
-0.274326
-0.273271
-0.272197
-0.271105
-0.269999
-0.268874
-0.267728
0.155687
0.147554
0.139605
0.131714
0.12373
0.115499
0.106924
0.0978991
0.0883681
0.0782859
0.0676288
0.0563983
0.0445844
0.032242
0.0193813
0.00607633
-0.00762501
-0.0216246
-0.0358357
-0.0501699
-0.0645101
-0.0787759
-0.0928328
-0.106626
-0.120039
-0.133014
-0.14548
-0.157378
-0.16868
-0.179345
-0.189371
-0.198733
-0.207435
-0.215505
-0.222949
-0.22978
-0.236036
-0.24173
-0.246892
-0.251564
-0.25578
-0.259565
-0.262937
-0.265936
-0.268589
-0.270914
-0.272942
-0.274702
-0.276214
-0.277494
-0.278554
-0.279417
-0.280106
-0.280631
-0.280997
-0.281223
-0.281325
-0.281313
-0.28119
-0.280964
-0.280653
-0.280256
-0.27978
-0.279236
-0.278632
-0.277972
-0.277256
-0.276493
-0.275675
-0.274806
-0.273936
-0.273029
-0.27209
-0.271121
-0.270129
-0.269114
-0.26808
-0.267029
-0.265958
-0.264863
0.153026
0.145154
0.137464
0.129837
0.122129
0.114192
0.105935
0.0972548
0.0880995
0.0784253
0.0682088
0.0574499
0.0461372
0.0343201
0.0220061
0.00926155
-0.00387183
-0.0173058
-0.0309617
-0.0447597
-0.0585917
-0.0723847
-0.086012
-0.0994223
-0.112504
-0.125199
-0.13744
-0.149166
-0.160347
-0.170937
-0.180934
-0.190306
-0.199053
-0.207197
-0.214743
-0.221698
-0.228095
-0.233943
-0.239271
-0.244117
-0.248512
-0.252478
-0.256033
-0.259215
-0.262048
-0.264552
-0.266755
-0.268685
-0.270364
-0.271805
-0.273022
-0.274037
-0.274872
-0.275537
-0.27604
-0.276397
-0.276624
-0.276734
-0.276727
-0.276614
-0.27641
-0.276117
-0.27574
-0.275292
-0.27478
-0.274209
-0.273577
-0.272894
-0.272157
-0.271376
-0.270565
-0.269725
-0.268853
-0.267948
-0.267018
-0.266063
-0.265085
-0.264089
-0.26307
-0.262025
0.150455
0.142827
0.13538
0.127998
0.120546
0.112882
0.104918
0.096557
0.0877485
0.0784507
0.0686406
0.0583168
0.0474671
0.0361358
0.0243284
0.0121044
-0.000499567
-0.013404
-0.0265373
-0.0398273
-0.0531744
-0.066512
-0.0797211
-0.0927535
-0.105503
-0.117914
-0.129918
-0.141457
-0.152497
-0.162993
-0.172935
-0.182292
-0.191059
-0.199254
-0.206876
-0.213929
-0.220444
-0.226426
-0.231899
-0.236899
-0.241454
-0.245585
-0.249308
-0.252658
-0.25566
-0.25833
-0.260698
-0.262789
-0.264626
-0.26622
-0.267586
-0.268746
-0.269721
-0.270523
-0.271157
-0.27164
-0.27199
-0.272217
-0.272324
-0.272319
-0.27222
-0.272028
-0.271749
-0.271395
-0.270973
-0.270488
-0.26994
-0.269337
-0.26868
-0.267982
-0.26723
-0.266457
-0.265651
-0.26481
-0.26394
-0.263043
-0.262122
-0.26118
-0.260212
-0.259217
0.14797
0.14057
0.13335
0.126198
0.118984
0.111573
0.103881
0.0958156
0.0873279
0.0783781
0.0689437
0.0590224
0.048601
0.0377199
0.0263824
0.0146426
0.00253255
-0.00987593
-0.0225175
-0.0353269
-0.0482122
-0.0611124
-0.0739163
-0.0865784
-0.0989977
-0.111121
-0.122882
-0.134222
-0.145107
-0.155489
-0.165359
-0.17468
-0.183444
-0.191666
-0.199341
-0.206472
-0.213082
-0.219176
-0.224775
-0.22991
-0.234608
-0.238888
-0.242764
-0.246269
-0.249426
-0.252252
-0.254774
-0.257017
-0.259002
-0.260742
-0.262251
-0.263549
-0.264659
-0.265591
-0.266351
-0.266957
-0.267425
-0.267766
-0.267982
-0.268084
-0.268087
-0.267994
-0.26781
-0.267546
-0.267213
-0.266812