/*--------------------------------*- C++ -*----------------------------------*\
| =========                 |                                                 |
| \\      /  F ield         | OpenFOAM: The Open Source CFD Toolbox           |
|  \\    /   O peration     | Version:  2406                                  |
|   \\  /    A nd           | Website:  www.openfoam.com                      |
|    \\/     M anipulation  |                                                 |
\*---------------------------------------------------------------------------*/
FoamFile
{
    version     2.0;
    format      ascii;
    arch        "LSB;label=32;scalar=64";
    class       volScalarField;
    location    "14.975";
    object      p;
}
// * * * * * * * * * * * * * * * * * * * * * * * * * * * * * * * * * * * * * //

dimensions      [0 2 -2 0 0 0 0];

internalField   nonuniform List<scalar> 
40000
(
-1.72737e-07
-1.506e-06
-3.73686e-06
-6.99832e-06
-1.14364e-05
-1.7189e-05
-2.4414e-05
-3.3296e-05
-4.40441e-05
-5.68905e-05
-7.20905e-05
-8.99221e-05
-0.000110685
-0.000134701
-0.000162312
-0.000193881
-0.000229791
-0.000270448
-0.000316274
-0.000367717
-0.000425243
-0.000489344
-0.000560534
-0.000639356
-0.000726382
-0.000822215
-0.000927496
-0.0010429
-0.00116917
-0.00130706
-0.00145741
-0.00162112
-0.00179914
-0.00199252
-0.00220238
-0.00242992
-0.00267645
-0.00294339
-0.00323225
-0.00354466
-0.00388239
-0.0042473
-0.00464139
-0.00506679
-0.00552574
-0.00602059
-0.0065538
-0.00712791
-0.00774556
-0.0084094
-0.00912214
-0.00988645
-0.010705
-0.0115802
-0.0125147
-0.0135105
-0.0145696
-0.0156936
-0.0168839
-0.0181411
-0.0194658
-0.0208575
-0.0223155
-0.0238383
-0.0254237
-0.027069
-0.0287706
-0.0305245
-0.0323259
-0.0341697
-0.0360503
-0.0379617
-0.0398979
-0.0418528
-0.0438201
-0.0457942
-0.0477693
-0.0497403
-0.0517025
-0.0536516
-0.0555839
-0.0574963
-0.0593858
-0.0612501
-0.0630869
-0.064894
-0.0666693
-0.0684104
-0.0701146
-0.0717787
-0.073399
-0.0749709
-0.0764892
-0.0779479
-0.0793401
-0.080658
-0.0818933
-0.0830368
-0.0840791
-0.0850099
-0.000710268
-0.00070831
-0.000707541
-0.000708154
-0.000710086
-0.000713437
-0.000718387
-0.000725131
-0.000733883
-0.000744881
-0.000758385
-0.00077468
-0.00079407
-0.000816883
-0.000843467
-0.000874192
-0.000909446
-0.000949642
-0.000995208
-0.0010466
-0.00110428
-0.00116876
-0.00124055
-0.0013202
-0.00140829
-0.00150543
-0.00161225
-0.00172945
-0.00185775
-0.00199793
-0.00215082
-0.00231731
-0.00249838
-0.00269504
-0.00290844
-0.00313976
-0.00339032
-0.00366153
-0.00395488
-0.00427202
-0.0046147
-0.00498476
-0.00538422
-0.00581517
-0.00627984
-0.00678057
-0.00731981
-0.00790007
-0.00852395
-0.0091941
-0.00991318
-0.0106838
-0.0115087
-0.0123901
-0.0133306
-0.0143323
-0.015397
-0.0165264
-0.0177216
-0.0189834
-0.0203121
-0.0217074
-0.0231683
-0.0246934
-0.0262805
-0.0279267
-0.0296286
-0.0313821
-0.0331826
-0.0350248
-0.0369034
-0.0388124
-0.040746
-0.0426981
-0.0446627
-0.0466342
-0.0486071
-0.0505764
-0.0525376
-0.0544866
-0.0564197
-0.0583339
-0.0602265
-0.062095
-0.0639373
-0.0657512
-0.0675345
-0.0692849
-0.0709994
-0.0726749
-0.0743073
-0.0758922
-0.077424
-0.0788965
-0.0803026
-0.0816344
-0.0828833
-0.08404
-0.0850946
-0.086037
-0.00138367
-0.00137858
-0.00137491
-0.00137294
-0.00137242
-0.00137341
-0.00137611
-0.00138072
-0.00138746
-0.00139657
-0.00140831
-0.00142299
-0.0014409
-0.00146237
-0.00148777
-0.00151747
-0.00155186
-0.00159135
-0.00163639
-0.00168743
-0.00174494
-0.00180944
-0.00188144
-0.0019615
-0.0020502
-0.00214814
-0.00225598
-0.0023744
-0.00250413
-0.00264594
-0.00280066
-0.0029692
-0.0031525
-0.00335161
-0.00356763
-0.00380176
-0.00405531
-0.00432967
-0.00462633
-0.00494693
-0.00529319
-0.00566697
-0.00607024
-0.00650509
-0.00697374
-0.00747849
-0.00802177
-0.00860608
-0.00923398
-0.0099081
-0.0106311
-0.0114055
-0.0122339
-0.0131188
-0.0140624
-0.015067
-0.0161343
-0.0172658
-0.0184628
-0.019726
-0.0210555
-0.0224511
-0.0239119
-0.0254362
-0.027022
-0.0286665
-0.0303661
-0.0321168
-0.0339141
-0.0357529
-0.0376277
-0.0395329
-0.0414626
-0.0434109
-0.0453721
-0.0473405
-0.0493109
-0.0512783
-0.0532384
-0.0551871
-0.0571211
-0.0590371
-0.0609327
-0.0628053
-0.0646529
-0.0664732
-0.068264
-0.0700229
-0.071747
-0.0734328
-0.0750764
-0.0766729
-0.0782168
-0.0797017
-0.0811202
-0.0824644
-0.0837254
-0.0848938
-0.0859594
-0.086912
-0.00201868
-0.00201059
-0.00200414
-0.00199969
-0.0019968
-0.00199548
-0.00199596
-0.00199845
-0.00200317
-0.00201037
-0.00202031
-0.00203329
-0.00204962
-0.00206964
-0.00209371
-0.0021222
-0.00215552
-0.00219408
-0.00223833
-0.00228873
-0.00234576
-0.00240992
-0.00248175
-0.0025618
-0.00265065
-0.00274891
-0.00285724
-0.00297631
-0.00310685
-0.00324965
-0.00340552
-0.00357536
-0.00376011
-0.00396081
-0.00417856
-0.00441454
-0.00467006
-0.00494648
-0.0052453
-0.00556812
-0.00591665
-0.00629274
-0.00669833
-0.0071355
-0.00760643
-0.00811341
-0.00865884
-0.00924519
-0.009875
-0.0105509
-0.0112754
-0.0120511
-0.0128806
-0.0137662
-0.0147103
-0.0157149
-0.0167819
-0.0179127
-0.0191086
-0.0203701
-0.0216976
-0.0230906
-0.0245483
-0.0260692
-0.027651
-0.0292912
-0.0309861
-0.0327319
-0.0345241
-0.0363576
-0.0382272
-0.0401272
-0.042052
-0.0439957
-0.0459527
-0.0479175
-0.049885
-0.0518503
-0.0538091
-0.0557576
-0.0576922
-0.05961
-0.0615084
-0.0633849
-0.0652374
-0.0670637
-0.0688615
-0.0706282
-0.0723609
-0.074056
-0.0757095
-0.0773164
-0.0788711
-0.0803668
-0.0817964
-0.0831514
-0.084423
-0.0856015
-0.0866768
-0.0876382
-0.0026141
-0.00260317
-0.00259409
-0.00258726
-0.00258207
-0.00257853
-0.00257685
-0.00257725
-0.00257997
-0.00258524
-0.00259335
-0.00260458
-0.00261926
-0.00263771
-0.00266032
-0.00268745
-0.00271951
-0.00275693
-0.00280014
-0.00284962
-0.00290585
-0.00296934
-0.00304062
-0.00312025
-0.0032088
-0.0033069
-0.0034152
-0.00353436
-0.00366513
-0.00380827
-0.00396461
-0.00413501
-0.00432045
-0.00452191
-0.00474051
-0.00497741
-0.0052339
-0.00551133
-0.00581117
-0.00613502
-0.00648456
-0.0068616
-0.00726808
-0.00770605
-0.00817765
-0.00868516
-0.00923094
-0.00981743
-0.0104471
-0.0111226
-0.0118465
-0.0126212
-0.0134494
-0.0143333
-0.0152753
-0.0162774
-0.0173413
-0.0184688
-0.0196607
-0.0209179
-0.0222405
-0.0236283
-0.0250803
-0.0265951
-0.0281707
-0.0298042
-0.0314923
-0.0332312
-0.0350164
-0.0368431
-0.038706
-0.0405997
-0.0425185
-0.0444568
-0.046409
-0.0483697
-0.0503339
-0.0522968
-0.0542542
-0.0562022
-0.0581374
-0.0600568
-0.0619578
-0.0638379
-0.0656949
-0.0675267
-0.0693307
-0.0711044
-0.0728448
-0.0745482
-0.0762104
-0.0778264
-0.0793904
-0.0808957
-0.0823347
-0.0836991
-0.0849799
-0.0861671
-0.0872507
-0.0882198
-0.00316929
-0.00315571
-0.00314414
-0.00313506
-0.0031277
-0.00312201
-0.00311824
-0.00311661
-0.00311735
-0.00312071
-0.00312696
-0.00313641
-0.00314936
-0.00316617
-0.00318719
-0.00321281
-0.00324345
-0.00327951
-0.00332146
-0.00336976
-0.00342489
-0.00348738
-0.00355775
-0.00363655
-0.00372439
-0.00382186
-0.00392961
-0.00404833
-0.00417874
-0.0043216
-0.00447773
-0.004648
-0.00483335
-0.00503478
-0.00525337
-0.00549029
-0.00574678
-0.00602419
-0.00632398
-0.0066477
-0.00699702
-0.00737373
-0.00777973
-0.00821704
-0.00868778
-0.0091942
-0.00973861
-0.0103234
-0.0109512
-0.0116243
-0.0123455
-0.0131171
-0.0139416
-0.0148215
-0.015759
-0.0167561
-0.0178146
-0.018936
-0.0201215
-0.0213718
-0.0226871
-0.0240671
-0.025511
-0.0270175
-0.0285844
-0.0302091
-0.0318885
-0.0336186
-0.0353952
-0.0372135
-0.0390684
-0.0409546
-0.0428665
-0.0447986
-0.0467454
-0.0487016
-0.0506621
-0.0526224
-0.0545781
-0.0565254
-0.058461
-0.0603817
-0.062285
-0.0641684
-0.0660295
-0.0678661
-0.0696757
-0.0714557
-0.0732028
-0.0749134
-0.0765832
-0.0782071
-0.0797791
-0.0812925
-0.0827396
-0.084112
-0.0854005
-0.0865952
-0.0876857
-0.0886613
-0.00368413
-0.00366809
-0.0036542
-0.003643
-0.00363358
-0.00362585
-0.00362007
-0.00361647
-0.00361528
-0.00361675
-0.00362115
-0.00362878
-0.00363996
-0.00365504
-0.00367439
-0.00369838
-0.00372742
-0.00376195
-0.00380242
-0.00384928
-0.00390305
-0.00396422
-0.00403333
-0.00411093
-0.00419763
-0.00429402
-0.00440075
-0.00451849
-0.00464798
-0.00478995
-0.00494523
-0.00511468
-0.00529921
-0.00549983
-0.00571758
-0.00595363
-0.00620919
-0.00648561
-0.00678429
-0.00710678
-0.00745471
-0.00782985
-0.00823406
-0.00866934
-0.00913776
-0.00964155
-0.010183
-0.0107645
-0.0113884
-0.0120574
-0.0127738
-0.0135403
-0.0143592
-0.0152329
-0.0161636
-0.0171534
-0.0182042
-0.0193173
-0.0204939
-0.0217349
-0.0230405
-0.0244104
-0.025844
-0.0273399
-0.0288961
-0.0305101
-0.0321787
-0.0338983
-0.0356647
-0.0374733
-0.039319
-0.0411966
-0.0431007
-0.0450258
-0.0469665
-0.0489175
-0.050874
-0.0528313
-0.0547851
-0.0567315
-0.0586672
-0.060589
-0.0624943
-0.0643805
-0.0662453
-0.0680862
-0.0699008
-0.0716861
-0.0734391
-0.075156
-0.0768323
-0.0784628
-0.0800416
-0.0815618
-0.0830156
-0.0843947
-0.0856897
-0.0868906
-0.087987
-0.088968
-0.00415891
-0.0041406
-0.00412457
-0.00411141
-0.00410005
-0.00409039
-0.0040827
-0.0040772
-0.00407414
-0.00407375
-0.00407632
-0.00408213
-0.00409151
-0.00410481
-0.00412239
-0.00414463
-0.00417196
-0.00420478
-0.00424357
-0.00428878
-0.00434091
-0.00440047
-0.00446799
-0.00454404
-0.0046292
-0.00472407
-0.00482931
-0.00494558
-0.00507359
-0.00521409
-0.0053679
-0.00553585
-0.00571886
-0.00591791
-0.00613404
-0.00636837
-0.00662211
-0.00689658
-0.00719316
-0.00751336
-0.00785879
-0.00823118
-0.00863236
-0.00906429
-0.00952903
-0.0100287
-0.0105657
-0.0111422
-0.0117607
-0.0124237
-0.0131337
-0.0138931
-0.0147043
-0.0155698
-0.0164918
-0.0174722
-0.0185129
-0.0196155
-0.0207812
-0.0220106
-0.0233043
-0.024662
-0.0260831
-0.0275663
-0.0291098
-0.0307111
-0.0323673
-0.0340748
-0.0358295
-0.0376269
-0.0394622
-0.0413301
-0.0432254
-0.0451427
-0.0470767
-0.0490222
-0.0509742
-0.0529281
-0.0548796
-0.0568248
-0.0587604
-0.060683
-0.06259
-0.0644787
-0.0663466
-0.0681913
-0.0700102
-0.0718002
-0.0735583
-0.0752804
-0.0769622
-0.0785983
-0.0801827
-0.0817085
-0.083168
-0.0845525
-0.0858528
-0.0870588
-0.0881599
-0.0891453
-0.00459433
-0.00457396
-0.00455596
-0.00454098
-0.00452783
-0.00451636
-0.00450686
-0.00449956
-0.00449469
-0.00449249
-0.00449325
-0.00449725
-0.00450481
-0.00451629
-0.00453204
-0.00455244
-0.00457792
-0.0046089
-0.00464583
-0.00468917
-0.00473943
-0.00479711
-0.00486274
-0.00493689
-0.00502014
-0.00511309
-0.00521639
-0.00533069
-0.00545671
-0.00559519
-0.00574692
-0.00591274
-0.00609355
-0.00629031
-0.00650403
-0.00673584
-0.00698691
-0.00725852
-0.00755204
-0.00786894
-0.00821081
-0.00857933
-0.00897631
-0.00940365
-0.00986339
-0.0103577
-0.0108887
-0.0114587
-0.0120703
-0.0127257
-0.0134274
-0.014178
-0.0149798
-0.0158352
-0.0167464
-0.0177154
-0.0187441
-0.0198342
-0.0209867
-0.0222026
-0.0234823
-0.0248257
-0.0262323
-0.0277009
-0.0292298
-0.0308167
-0.0324588
-0.0341525
-0.0358941
-0.037679
-0.0395026
-0.0413598
-0.0432454
-0.0451542
-0.0470807
-0.04902
-0.050967
-0.0529171
-0.054866
-0.0568098
-0.0587449
-0.0606681
-0.0625764
-0.0644672
-0.0663379
-0.0681859
-0.0700084
-0.0718026
-0.0735649
-0.0752915
-0.0769779
-0.0786186
-0.0802076
-0.081738
-0.083202
-0.0845909
-0.0858954
-0.0871054
-0.0882104
-0.0891992
-0.00499138
-0.00496915
-0.00494938
-0.00493274
-0.00491793
-0.00490478
-0.00489358
-0.00488457
-0.00487798
-0.00487404
-0.00487302
-0.00487523
-0.00488097
-0.0048906
-0.00490447
-0.00492297
-0.00494651
-0.00497551
-0.00501042
-0.00505171
-0.00509988
-0.00515542
-0.00521889
-0.00529083
-0.00537181
-0.00546246
-0.00556339
-0.00567527
-0.0057988
-0.00593472
-0.00608381
-0.00624689
-0.00642485
-0.00661862
-0.00682921
-0.00705772
-0.00730529
-0.00757318
-0.00786273
-0.00817538
-0.00851267
-0.00887626
-0.00926792
-0.00968951
-0.010143
-0.0106306
-0.0111543
-0.0117165
-0.0123196
-0.0129658
-0.0136578
-0.0143979
-0.0151885
-0.016032
-0.0169306
-0.0178864
-0.0189013
-0.0199768
-0.0211143
-0.0223147
-0.0235784
-0.0249057
-0.0262959
-0.027748
-0.0292605
-0.0308313
-0.0324576
-0.0341361
-0.035863
-0.0376341
-0.0394449
-0.0412903
-0.0431653
-0.0450646
-0.046983
-0.0489155
-0.050857
-0.0528029
-0.0547488
-0.0566908
-0.0586251
-0.0605485
-0.0624579
-0.0643505
-0.0662235
-0.0680744
-0.0699002
-0.0716978
-0.0734638
-0.0751942
-0.0768843
-0.0785288
-0.0801216
-0.0816557
-0.0831232
-0.0845156
-0.0858234
-0.0870365
-0.0881444
-0.0891359
-0.00535133
-0.00532746
-0.00530609
-0.00528795
-0.00527163
-0.00525694
-0.00524416
-0.00523355
-0.00522531
-0.00521969
-0.00521696
-0.00521741
-0.00522135
-0.00522912
-0.00524108
-0.00525762
-0.00527913
-0.00530604
-0.0053388
-0.00537788
-0.00542376
-0.00547696
-0.005538
-0.00560743
-0.00568583
-0.00577381
-0.00587198
-0.00598101
-0.00610159
-0.00623445
-0.00638035
-0.0065401
-0.00671459
-0.00690472
-0.00711149
-0.00733595
-0.00757924
-0.00784259
-0.0081273
-0.00843478
-0.00876654
-0.00912419
-0.00950947
-0.0099242
-0.0103703
-0.0108499
-0.0113651
-0.0119181
-0.0125113
-0.0131471
-0.0138278
-0.0145559
-0.0153337
-0.0161637
-0.017048
-0.0179888
-0.018988
-0.0200473
-0.0211679
-0.0223509
-0.0235969
-0.0249061
-0.0262781
-0.0277121
-0.0292065
-0.0307595
-0.0323684
-0.0340301
-0.035741
-0.0374971
-0.0392937
-0.0411263
-0.0429896
-0.0448787
-0.0467882
-0.0487132
-0.0506487
-0.0525899
-0.0545324
-0.0564722
-0.0584054
-0.0603287
-0.0622389
-0.064133
-0.0660081
-0.0678614
-0.06969
-0.0714907
-0.0732598
-0.0749934
-0.0766867
-0.0783343
-0.0799301
-0.0814671
-0.0829374
-0.0843324
-0.0856427
-0.0868582
-0.0879682
-0.0889618
-0.00567569
-0.00565036
-0.00562759
-0.00560811
-0.00559042
-0.00557432
-0.00556009
-0.00554797
-0.00553819
-0.00553098
-0.0055266
-0.00552533
-0.00552749
-0.00553342
-0.00554346
-0.00555799
-0.00557741
-0.00560216
-0.00563266
-0.00566938
-0.0057128
-0.00576344
-0.00582182
-0.00588848
-0.00596401
-0.00604898
-0.00614404
-0.00624981
-0.006367
-0.00649632
-0.00663852
-0.0067944
-0.00696483
-0.00715069
-0.00735297
-0.00757269
-0.00781096
-0.00806898
-0.00834803
-0.00864947
-0.00897479
-0.00932556
-0.00970346
-0.0101103
-0.0105479
-0.0110185
-0.0115239
-0.0120665
-0.0126486
-0.0132724
-0.0139405
-0.0146551
-0.0154187
-0.0162336
-0.0171021
-0.0180263
-0.0190082
-0.0200494
-0.0211515
-0.0223154
-0.023542
-0.0248314
-0.0261835
-0.0275976
-0.0290723
-0.0306058
-0.0321958
-0.0338393
-0.0355328
-0.0372725
-0.0390539
-0.0408724
-0.0427232
-0.0446011
-0.0465009
-0.0484178
-0.0503465
-0.0522825
-0.0542212
-0.0561585
-0.0580903
-0.0600132
-0.0619239
-0.0638192
-0.0656961
-0.0675516
-0.0693827
-0.071186
-0.0729579
-0.0746942
-0.0763902
-0.0780403
-0.0796386
-0.0811778
-0.0826503
-0.0840472
-0.0853594
-0.0865766
-0.0876883
-0.0886832
-0.00596609
-0.00593951
-0.00591551
-0.00589485
-0.00587594
-0.00585857
-0.00584301
-0.00582951
-0.00581829
-0.00580957
-0.00580361
-0.00580069
-0.00580111
-0.0058052
-0.00581332
-0.00582583
-0.00584313
-0.00586563
-0.00589378
-0.00592802
-0.00596885
-0.00601676
-0.00607227
-0.00613593
-0.0062083
-0.00628998
-0.00638157
-0.00648372
-0.00659711
-0.00672245
-0.00686047
-0.00701197
-0.00717778
-0.00735878
-0.00755594
-0.00777025
-0.0080028
-0.00825475
-0.00852735
-0.00882195
-0.00913996
-0.00948294
-0.00985252
-0.0102505
-0.0106786
-0.011139
-0.0116336
-0.0121646
-0.0127344
-0.0133451
-0.0139991
-0.0146989
-0.0154469
-0.0162453
-0.0170965
-0.0180026
-0.0189656
-0.0199873
-0.0210692
-0.0222125
-0.0234179
-0.024686
-0.0260165
-0.0274091
-0.0288625
-0.0303751
-0.0319446
-0.0335684
-0.0352432
-0.0369651
-0.0387301
-0.0405335
-0.0423706
-0.0442364
-0.0461257
-0.0480336
-0.0499551
-0.0518853
-0.0538197
-0.055754
-0.0576841
-0.0596064
-0.0615173
-0.0634135
-0.065292
-0.0671495
-0.0689829
-0.0707886
-0.072563
-0.0743017
-0.076
-0.0776523
-0.0792525
-0.0807936
-0.0822677
-0.0836662
-0.0849797
-0.0861981
-0.0873109
-0.0883068
-0.00622431
-0.00619667
-0.00617163
-0.00614994
-0.00612995
-0.00611144
-0.00609469
-0.00607993
-0.00606737
-0.00605724
-0.00604977
-0.00604526
-0.00604399
-0.00604629
-0.0060525
-0.00606299
-0.00607814
-0.00609836
-0.00612408
-0.00615576
-0.00619386
-0.00623889
-0.00629136
-0.0063518
-0.00642078
-0.00649888
-0.00658671
-0.0066849
-0.00679411
-0.00691505
-0.00704845
-0.00719507
-0.00735575
-0.00753135
-0.00772278
-0.00793106
-0.00815722
-0.0084024
-0.00866782
-0.00895478
-0.00926468
-0.00959903
-0.00995941
-0.0103475
-0.0107653
-0.0112145
-0.0116972
-0.0122156
-0.0127718
-0.0133682
-0.0140071
-0.0146909
-0.0154219
-0.0162025
-0.017035
-0.0179216
-0.0188643
-0.0198649
-0.0209251
-0.0220462
-0.023229
-0.0244741
-0.0257816
-0.0271511
-0.0285817
-0.0300718
-0.0316195
-0.0332222
-0.0348768
-0.0365798
-0.038327
-0.0401141
-0.0419365
-0.0437892
-0.0456672
-0.0475654
-0.0494789
-0.0514028
-0.0533324
-0.0552633
-0.0571913
-0.0591127
-0.0610236
-0.0629206
-0.0648005
-0.0666598
-0.0684953
-0.0703033
-0.0720799
-0.0738209
-0.0755213
-0.0771755
-0.0787775
-0.0803201
-0.0817955
-0.0831951
-0.0845096
-0.0857289
-0.0868424
-0.0878389
-0.00645221
-0.0064237
-0.00639778
-0.00637522
-0.0063543
-0.00633479
-0.00631697
-0.00630106
-0.00628728
-0.00627583
-0.00626695
-0.00626093
-0.00625803
-0.00625858
-0.00626292
-0.00627139
-0.00628438
-0.00630228
-0.00632553
-0.00635457
-0.00638985
-0.00643188
-0.00648115
-0.0065382
-0.00660358
-0.00667786
-0.00676164
-0.00685555
-0.00696025
-0.00707641
-0.00720477
-0.00734608
-0.00750113
-0.00767079
-0.00785596
-0.0080576
-0.00827675
-0.0085145
-0.00877204
-0.00905064
-0.00935166
-0.00967656
-0.0100269
-0.0104044
-0.0108107
-0.0112478
-0.0117177
-0.0122224
-0.0127641
-0.0133451
-0.0139677
-0.0146343
-0.0153471
-0.0161087
-0.0169212
-0.017787
-0.0187081
-0.0196863
-0.0207235
-0.0218209
-0.0229796
-0.0242003
-0.0254833
-0.0268283
-0.0282345
-0.0297007
-0.0312251
-0.0328053
-0.0344385
-0.0361211
-0.0378494
-0.0396191
-0.0414257
-0.0432643
-0.04513
-0.0470177
-0.0489225
-0.0508394
-0.0527636
-0.0546907
-0.0566163
-0.0585364
-0.0604471
-0.0623448
-0.0642259
-0.0660871
-0.0679246
-0.0697348
-0.0715137
-0.0732568
-0.0749592
-0.0766153
-0.0782188
-0.0797628
-0.0812394
-0.08264
-0.0839552
-0.0851752
-0.0862891
-0.0872861
-0.00665169
-0.00662249
-0.00659586
-0.00657256
-0.00655086
-0.00653048
-0.00651172
-0.00649479
-0.00647989
-0.00646723
-0.00645704
-0.00644958
-0.00644513
-0.00644399
-0.00644649
-0.00645297
-0.00646381
-0.00647939
-0.00650014
-0.00652648
-0.00655887
-0.00659779
-0.00664374
-0.00669724
-0.00675883
-0.00682907
-0.00690857
-0.00699793
-0.00709779
-0.00720884
-0.00733177
-0.00746734
-0.00761633
-0.00777957
-0.00795795
-0.0081524
-0.00836394
-0.00859364
-0.00884264
-0.00911219
-0.00940361
-0.00971832
-0.0100578
-0.0104238
-0.0108179
-0.0112421
-0.0116981
-0.0121882
-0.0127145
-0.0132791
-0.0138843
-0.0145326
-0.0152262
-0.0159676
-0.016759
-0.0176027
-0.0185008
-0.0194554
-0.0204682
-0.0215406
-0.0226739
-0.0238689
-0.0251259
-0.026445
-0.0278255
-0.0292664
-0.0307661
-0.0323225
-0.0339328
-0.0355938
-0.0373019
-0.039053
-0.0408427
-0.0426662
-0.0445186
-0.046395
-0.0482903
-0.0501996
-0.0521179
-0.0540407
-0.0559635
-0.0578821
-0.0597924
-0.0616905
-0.0635729
-0.0654357
-0.0672753
-0.0690878
-0.070869
-0.0726143
-0.0743188
-0.0759768
-0.0775819
-0.0791273
-0.080605
-0.0820064
-0.0833224
-0.0845429
-0.0856573
-0.0866545
-0.00682467
-0.00679495
-0.00676777
-0.00674389
-0.00672153
-0.00670042
-0.00668084
-0.00666301
-0.00664711
-0.00663334
-0.00662193
-0.00661312
-0.00660719
-0.00660443
-0.00660515
-0.00660968
-0.0066184
-0.00663167
-0.0066499
-0.00667351
-0.00670295
-0.00673869
-0.00678122
-0.00683103
-0.00688868
-0.00695471
-0.0070297
-0.00711425
-0.00720901
-0.00731462
-0.00743179
-0.00756124
-0.00770375
-0.00786012
-0.00803122
-0.00821797
-0.00842135
-0.0086424
-0.00888225
-0.0091421
-0.00942324
-0.00972704
-0.010055
-0.0104087
-0.0107898
-0.0112001
-0.0116416
-0.0121162
-0.012626
-0.0131733
-0.0137602
-0.0143892
-0.0150625
-0.0157826
-0.0165518
-0.0173723
-0.0182465
-0.0191762
-0.0201633
-0.0212096
-0.0223161
-0.023484
-0.0247138
-0.0260056
-0.0273591
-0.0287734
-0.0302471
-0.0317782
-0.0333644
-0.0350026
-0.0366892
-0.0384205
-0.0401921
-0.0419995
-0.0438377
-0.0457018
-0.0475869
-0.0494878
-0.0513996
-0.0533177
-0.0552373
-0.057154
-0.0590637
-0.0609622
-0.0628458
-0.0647103
-0.0665521
-0.0683669
-0.0701506
-0.0718983
-0.073605
-0.075265
-0.0768719
-0.0784188
-0.0798977
-0.0813002
-0.0826169
-0.083838
-0.0849528
-0.0859503
-0.00697308
-0.006943
-0.00691541
-0.00689108
-0.00686819
-0.00684648
-0.00682621
-0.00680759
-0.00679081
-0.00677604
-0.00676351
-0.00675345
-0.00674613
-0.00674181
-0.00674082
-0.00674346
-0.00675008
-0.00676106
-0.00677678
-0.00679765
-0.00682412
-0.00685662
-0.00689564
-0.00694168
-0.00699525
-0.0070569
-0.0071272
-0.00720674
-0.00729613
-0.00739603
-0.00750712
-0.0076301
-0.00776574
-0.00791483
-0.0080782
-0.00825677
-0.00845147
-0.00866334
-0.00889345
-0.00914299
-0.00941321
-0.00970544
-0.0100211
-0.0103618
-0.0107292
-0.0111249
-0.011551
-0.0120092
-0.0125018
-0.0130308
-0.0135986
-0.0142073
-0.0148595
-0.0155573
-0.0163033
-0.0170996
-0.0179486
-0.0188524
-0.0198128
-0.0208317
-0.0219104
-0.02305
-0.0242513
-0.0255146
-0.0268398
-0.0282261
-0.0296725
-0.0311772
-0.0327379
-0.034352
-0.036016
-0.0377263
-0.0394787
-0.0412688
-0.0430918
-0.0449428
-0.0468167
-0.0487085
-0.0506133
-0.052526
-0.0544419
-0.0563565
-0.0582654
-0.0601642
-0.0620489
-0.0639153
-0.0657593
-0.0675767
-0.069363
-0.0711134
-0.0728226
-0.0744849
-0.0760939
-0.0776425
-0.0791229
-0.0805266
-0.0818443
-0.0830661
-0.0841815
-0.0851795
-0.00709879
-0.00706849
-0.00704064
-0.00701599
-0.00699271
-0.00697052
-0.00694967
-0.00693039
-0.00691284
-0.00689718
-0.00688363
-0.00687242
-0.00686379
-0.00685801
-0.00685536
-0.00685617
-0.00686075
-0.00686948
-0.00688271
-0.00690085
-0.00692431
-0.00695355
-0.00698901
-0.00703119
-0.00708058
-0.00713773
-0.00720318
-0.00727751
-0.00736133
-0.00745527
-0.00755999
-0.0076762
-0.00780462
-0.00794604
-0.00810128
-0.0082712
-0.00845675
-0.00865892
-0.00887876
-0.00911742
-0.00937612
-0.00965615
-0.00995894
-0.010286
-0.0106389
-0.0110193
-0.0114292
-0.0118703
-0.0123449
-0.0128549
-0.0134026
-0.0139903
-0.0146203
-0.015295
-0.0160168
-0.016788
-0.0176109
-0.0184878
-0.0194205
-0.0204109
-0.0214606
-0.0225708
-0.0237425
-0.0249761
-0.0262718
-0.027629
-0.0290468
-0.0305238
-0.0320579
-0.0336466
-0.0352868
-0.0369749
-0.038707
-0.0404787
-0.0422855
-0.0441223
-0.0459842
-0.0478662
-0.0497631
-0.05167
-0.0535819
-0.055494
-0.0574018
-0.0593008
-0.0611866
-0.0630549
-0.0649014
-0.0667215
-0.0685108
-0.0702641
-0.0719762
-0.0736412
-0.0752526
-0.0768034
-0.0782856
-0.0796909
-0.0810099
-0.0822327
-0.083349
-0.0843476
-0.00720363
-0.00717327
-0.00714529
-0.00712044
-0.00709688
-0.00707433
-0.00705304
-0.0070332
-0.00701498
-0.00699855
-0.00698409
-0.00697182
-0.00696198
-0.00695481
-0.0069506
-0.00694964
-0.00695225
-0.00695877
-0.00696955
-0.00698497
-0.00700545
-0.0070314
-0.00706327
-0.00710153
-0.00714667
-0.00719921
-0.00725968
-0.00732865
-0.0074067
-0.00749446
-0.00759257
-0.00770171
-0.0078226
-0.00795601
-0.00810273
-0.00826361
-0.00843956
-0.00863155
-0.00884061
-0.00906786
-0.00931447
-0.00958173
-0.00987099
-0.0101837
-0.0105215
-0.010886
-0.011279
-0.0117023
-0.0121581
-0.0126483
-0.0131752
-0.0137411
-0.0143482
-0.014999
-0.0156958
-0.016441
-0.0172369
-0.0180859
-0.0189899
-0.0199509
-0.0209706
-0.0220504
-0.0231914
-0.0243943
-0.0256593
-0.0269863
-0.0283744
-0.0298225
-0.0313288
-0.0328909
-0.034506
-0.0361708
-0.0378814
-0.0396337
-0.0414232
-0.0432449
-0.045094
-0.0469653
-0.0488537
-0.0507541
-0.0526614
-0.0545708
-0.0564773
-0.0583763
-0.0602632
-0.0621335
-0.0639825
-0.0658058
-0.0675983
-0.069355
-0.0710704
-0.0727385
-0.0743529
-0.0759062
-0.0773908
-0.078798
-0.0801188
-0.0813431
-0.0824605
-0.0834601
-0.00728939
-0.00725909
-0.00723111
-0.00720618
-0.00718246
-0.00715966
-0.00713803
-0.00711775
-0.00709898
-0.00708187
-0.00706661
-0.00705339
-0.00704243
-0.00703397
-0.00702828
-0.00702564
-0.00702634
-0.0070307
-0.00703908
-0.00705183
-0.00706933
-0.007092
-0.00712027
-0.00715458
-0.00719541
-0.00724325
-0.00729864
-0.00736211
-0.00743424
-0.00751563
-0.0076069
-0.00770873
-0.00782182
-0.00794689
-0.00808474
-0.0082362
-0.00840214
-0.00858352
-0.00878134
-0.00899667
-0.00923068
-0.0094846
-0.00975977
-0.0100576
-0.0103797
-0.0107276
-0.011103
-0.0115079
-0.0119442
-0.012414
-0.0129194
-0.0134627
-0.0140462
-0.0146722
-0.0153433
-0.0160617
-0.0168299
-0.0176501
-0.0185246
-0.0194554
-0.0204442
-0.0214927
-0.022602
-0.0237732
-0.0250065
-0.0263021
-0.0276594
-0.0290775
-0.0305548
-0.0320892
-0.0336782
-0.0353185
-0.0370065
-0.0387383
-0.0405094
-0.042315
-0.0441503
-0.0460102
-0.0478894
-0.0497827
-0.0516849
-0.053591
-0.055496
-0.0573949
-0.0592829
-0.0611552
-0.0630071
-0.0648336
-0.0666298
-0.0683903
-0.0701095
-0.0717813
-0.0733991
-0.0749556
-0.0764431
-0.0778529
-0.0791758
-0.0804021
-0.0815212
-0.0825221
-0.00735777
-0.00732765
-0.00729979
-0.00727488
-0.00725111
-0.00722817
-0.00720631
-0.00718571
-0.00716649
-0.00714882
-0.00713285
-0.00711877
-0.0071068
-0.00709715
-0.00709007
-0.00708582
-0.00708469
-0.00708698
-0.007093
-0.00710312
-0.00711769
-0.0071371
-0.00716176
-0.00719211
-0.00722859
-0.00727169
-0.00732191
-0.00737978
-0.00744585
-0.0075207
-0.00760496
-0.00769925
-0.00780427
-0.00792073
-0.0080494
-0.00819109
-0.00834665
-0.00851701
-0.00870314
-0.00890611
-0.00912703
-0.00936711
-0.00962765
-0.00991005
-0.0102158
-0.0105465
-0.0109039
-0.0112897
-0.0117059
-0.0121546
-0.0126379
-0.0131579
-0.0137171
-0.0143178
-0.0149624
-0.0156533
-0.016393
-0.0171838
-0.018028
-0.0189277
-0.0198849
-0.0209012
-0.021978
-0.0231165
-0.0243172
-0.0255805
-0.026906
-0.0282931
-0.0297403
-0.031246
-0.0328076
-0.0344223
-0.0360867
-0.0377969
-0.0395486
-0.0413371
-0.0431577
-0.0450052
-0.0468744
-0.0487599
-0.0506566
-0.052559
-0.0544621
-0.0563607
-0.0582497
-0.0601242
-0.0619791
-0.0638092
-0.0656095
-0.0673743
-0.0690978
-0.0707738
-0.0723957
-0.0739561
-0.075447
-0.07686
-0.0781858
-0.0794145
-0.0805358
-0.0815387
-0.00741038
-0.00738056
-0.00735293
-0.00732815
-0.00730442
-0.00728145
-0.00725947
-0.00723864
-0.00721909
-0.00720095
-0.00718438
-0.00716955
-0.00715667
-0.00714592
-0.00713754
-0.00713178
-0.0071289
-0.00712918
-0.00713293
-0.00714047
-0.00715215
-0.00716834
-0.00718941
-0.0072158
-0.00724792
-0.00728623
-0.00733123
-0.00738341
-0.00744331
-0.0075115
-0.00758856
-0.00767513
-0.00777187
-0.00787947
-0.00799867
-0.00813027
-0.00827511
-0.00843407
-0.00860813
-0.00879829
-0.00900567
-0.00923143
-0.00947686
-0.0097433
-0.0100322
-0.0103452
-0.0106839
-0.0110501
-0.0114457
-0.0118727
-0.0123332
-0.0128294
-0.0133637
-0.0139384
-0.014556
-0.0152188
-0.0159294
-0.0166901
-0.0175034
-0.0183713
-0.019296
-0.0202794
-0.021323
-0.0224279
-0.0235952
-0.0248253
-0.0261181
-0.0274731
-0.0288894
-0.0303652
-0.0318985
-0.0334866
-0.0351262
-0.0368138
-0.038545
-0.0403156
-0.0421205
-0.0439548
-0.0458132
-0.0476903
-0.0495807
-0.0514791
-0.05338
-0.055278
-0.057168
-0.0590447
-0.0609027
-0.0627368
-0.0645414
-0.0663109
-0.0680393
-0.0697202
-0.0713468
-0.0729117
-0.0744068
-0.0758237
-0.077153
-0.0783849
-0.0795091
-0.0805144
-0.00744876
-0.00741935
-0.00739204
-0.00736749
-0.00734391
-0.00732101
-0.007299
-0.00727804
-0.00725825
-0.00723976
-0.00722269
-0.00720722
-0.00719351
-0.00718177
-0.00717219
-0.00716501
-0.00716047
-0.00715883
-0.00716037
-0.00716541
-0.00717425
-0.00718726
-0.00720478
-0.00722722
-0.00725497
-0.00728848
-0.00732822
-0.00737465
-0.0074283
-0.00748971
-0.00755945
-0.00763812
-0.00772637
-0.00782488
-0.00793437
-0.0080556
-0.0081894
-0.00833663
-0.00849823
-0.00867521
-0.00886862
-0.00907963
-0.00930948
-0.00955949
-0.0098311
-0.0101258
-0.0104453
-0.0107914
-0.0111658
-0.0115706
-0.0120078
-0.0124798
-0.0129886
-0.0135368
-0.0141268
-0.0147609
-0.0154418
-0.0161719
-0.0169536
-0.0177892
-0.018681
-0.0196307
-0.0206403
-0.0217111
-0.0228442
-0.0240403
-0.0252995
-0.0266217
-0.028006
-0.0294511
-0.0309551
-0.0325155
-0.0341294
-0.0357933
-0.0375032
-0.0392546
-0.041043
-0.0428632
-0.04471
-0.046578
-0.0484616
-0.0503553
-0.0522536
-0.0541509
-0.0560417
-0.0579206
-0.0597819
-0.0616201
-0.0634296
-0.0652043
-0.0669381
-0.0686245
-0.0702565
-0.0718266
-0.0733266
-0.0747481
-0.0760817
-0.0773175
-0.0784452
-0.0794537
-0.00747436
-0.00744546
-0.00741857
-0.00739434
-0.007371
-0.00734825
-0.00732631
-0.00730533
-0.0072854
-0.00726664
-0.00724918
-0.00723316
-0.00721874
-0.00720609
-0.00719541
-0.0071869
-0.00718079
-0.00717732
-0.00717674
-0.00717934
-0.00718542
-0.0071953
-0.00720931
-0.00722783
-0.00725123
-0.00727994
-0.00731438
-0.00735503
-0.00740236
-0.0074569
-0.00751919
-0.00758983
-0.00766944
-0.00775866
-0.0078582
-0.00796881
-0.00809128
-0.00822647
-0.00837528
-0.0085387
-0.00871777
-0.00891363
-0.00912747
-0.00936061
-0.00961445
-0.00989049
-0.0101903
-0.0105157
-0.0108685
-0.0112506
-0.0116641
-0.0121112
-0.0125942
-0.0131154
-0.0136773
-0.0142823
-0.0149331
-0.015632
-0.0163817
-0.0171845
-0.0180427
-0.0189583
-0.0199334
-0.0209694
-0.0220676
-0.023229
-0.024454
-0.0257425
-0.0270941
-0.0285076
-0.0299813
-0.0315132
-0.0331004
-0.0347397
-0.0364272
-0.0381587
-0.0399295
-0.0417348
-0.0435691
-0.0454272
-0.0473034
-0.049192
-0.0510873
-0.0529835
-0.054875
-0.056756
-0.0586207
-0.0604633
-0.0622779
-0.0640582
-0.065798
-0.0674906
-0.0691286
-0.0707046
-0.0722104
-0.0736373
-0.0749759
-0.0762164
-0.0773482
-0.0783606
-0.00748853
-0.00746022
-0.00743385
-0.00741002
-0.007387
-0.00736451
-0.00734273
-0.00732181
-0.00730184
-0.00728291
-0.00726515
-0.00724868
-0.00723364
-0.00722019
-0.00720851
-0.00719877
-0.00719118
-0.00718597
-0.00718335
-0.0071836
-0.00718698
-0.00719379
-0.00720435
-0.00721899
-0.00723807
-0.00726198
-0.00729113
-0.00732595
-0.00736692
-0.00741452
-0.00746928
-0.00753176
-0.00760257
-0.00768233
-0.00777172
-0.00787148
-0.00798237
-0.00810523
-0.00824095
-0.00839048
-0.00855486
-0.00873517
-0.00893263
-0.00914849
-0.00938414
-0.00964106
-0.00992083
-0.0102252
-0.0105558
-0.0109148
-0.0113042
-0.011726
-0.0121827
-0.0126765
-0.0132099
-0.0137854
-0.0144056
-0.015073
-0.0157903
-0.0165598