/*--------------------------------*- C++ -*----------------------------------*\
| =========                 |                                                 |
| \\      /  F ield         | OpenFOAM: The Open Source CFD Toolbox           |
|  \\    /   O peration     | Version:  2406                                  |
|   \\  /    A nd           | Website:  www.openfoam.com                      |
|    \\/     M anipulation  |                                                 |
\*---------------------------------------------------------------------------*/
FoamFile
{
    version     2.0;
    format      ascii;
    arch        "LSB;label=32;scalar=64";
    class       surfaceScalarField;
    location    "14.975";
    object      phi;
}
// * * * * * * * * * * * * * * * * * * * * * * * * * * * * * * * * * * * * * //

dimensions      [0 3 -1 0 0 0 0];

oriented        oriented;

internalField   nonuniform List<scalar> 
79600
(
-1.45138e-10
4.51751e-07
-4.51577e-07
-1.59273e-09
1.35567e-06
-1.35422e-06
-5.31474e-09
2.27387e-06
-2.27015e-06
-1.23748e-08
3.20568e-06
-3.19862e-06
-2.38919e-08
4.15037e-06
-4.13885e-06
-4.1033e-08
5.10714e-06
-5.09e-06
-6.50046e-08
6.07517e-06
-6.0512e-06
-9.70431e-08
7.05359e-06
-7.02155e-06
-1.38404e-07
8.04152e-06
-8.00016e-06
-1.90353e-07
9.03808e-06
-8.98613e-06
-2.5415e-07
1.00424e-05
-9.97857e-06
-3.31043e-07
1.10535e-05
-1.09766e-05
-4.22253e-07
1.20708e-05
-1.19796e-05
-5.28961e-07
1.30933e-05
-1.29866e-05
-6.52299e-07
1.41205e-05
-1.39972e-05
-7.93334e-07
1.51518e-05
-1.50108e-05
-9.53064e-07
1.61868e-05
-1.60271e-05
-1.1324e-06
1.72252e-05
-1.70458e-05
-1.33216e-06
1.82669e-05
-1.80671e-05
-1.55305e-06
1.9312e-05
-1.90911e-05
-1.7957e-06
2.03608e-05
-2.01181e-05
-2.06058e-06
2.14139e-05
-2.1149e-05
-2.34808e-06
2.24722e-05
-2.21847e-05
-2.65844e-06
2.35366e-05
-2.32263e-05
-2.9918e-06
2.46086e-05
-2.42753e-05
-3.34816e-06
2.56899e-05
-2.53335e-05
-3.72742e-06
2.67823e-05
-2.6403e-05
-4.12934e-06
2.7888e-05
-2.74861e-05
-4.5536e-06
2.90095e-05
-2.85853e-05
-4.99977e-06
3.01496e-05
-2.97035e-05
-5.46731e-06
3.13112e-05
-3.08437e-05
-5.95562e-06
3.24974e-05
-3.20091e-05
-6.46401e-06
3.37116e-05
-3.32032e-05
-6.99173e-06
3.4957e-05
-3.44293e-05
-7.53798e-06
3.62373e-05
-3.56911e-05
-8.1019e-06
3.75558e-05
-3.69919e-05
-8.68262e-06
3.8916e-05
-3.83353e-05
-9.27921e-06
4.03211e-05
-3.97245e-05
-9.89074e-06
4.17742e-05
-4.11627e-05
-1.05162e-05
4.32782e-05
-4.26527e-05
-1.11547e-05
4.48353e-05
-4.41968e-05
-1.18052e-05
4.64477e-05
-4.57972e-05
-1.24667e-05
4.81167e-05
-4.74553e-05
-1.31381e-05
4.98433e-05
-4.91719e-05
-1.38183e-05
5.16277e-05
-5.09474e-05
-1.45063e-05
5.34692e-05
-5.27812e-05
-1.52009e-05
5.53664e-05
-5.46719e-05
-1.59007e-05
5.73171e-05
-5.66172e-05
-1.66046e-05
5.93178e-05
-5.86139e-05
-1.73112e-05
6.13644e-05
-6.06579e-05
-1.8019e-05
6.34515e-05
-6.27437e-05
-1.87263e-05
6.55724e-05
-6.4865e-05
-1.94317e-05
6.77195e-05
-6.70141e-05
-2.01333e-05
6.9884e-05
-6.91824e-05
-2.08293e-05
7.2056e-05
-7.136e-05
-2.15178e-05
7.42243e-05
-7.35357e-05
-2.21969e-05
7.63766e-05
-7.56976e-05
-2.28645e-05
7.84999e-05
-7.78323e-05
-2.35187e-05
8.05799e-05
-7.99257e-05
-2.41576e-05
8.26018e-05
-8.1963e-05
-2.47792e-05
8.45501e-05
-8.39285e-05
-2.53817e-05
8.64088e-05
-8.58063e-05
-2.59637e-05
8.81621e-05
-8.75802e-05
-2.65238e-05
8.97941e-05
-8.9234e-05
-2.70609e-05
9.12893e-05
-9.07522e-05
-2.75743e-05
9.26332e-05
-9.21198e-05
-2.80637e-05
9.38124e-05
-9.3323e-05
-2.85292e-05
9.48147e-05
-9.43492e-05
-2.89714e-05
9.56302e-05
-9.5188e-05
-2.93914e-05
9.62508e-05
-9.58307e-05
-2.97909e-05
9.66707e-05
-9.62713e-05
-3.01719e-05
9.68869e-05
-9.65059e-05
-3.05371e-05
9.68989e-05
-9.65337e-05
-3.08895e-05
9.67086e-05
-9.63562e-05
-3.12325e-05
9.63207e-05
-9.59777e-05
-3.157e-05
9.57419e-05
-9.54045e-05
-3.19057e-05
9.49808e-05
-9.4645e-05
-3.22438e-05
9.40472e-05
-9.37091e-05
-3.25883e-05
9.29519e-05
-9.26074e-05
-3.2943e-05
9.17054e-05
-9.13507e-05
-3.33116e-05
9.03179e-05
-8.99493e-05
-3.36973e-05
8.8798e-05
-8.84123e-05
-3.41029e-05
8.71523e-05
-8.67468e-05
-3.45305e-05
8.5385e-05
-8.49574e-05
-3.49817e-05
8.34968e-05
-8.30456e-05
-3.54575e-05
8.14851e-05
-8.10093e-05
-3.5958e-05
7.93437e-05
-7.88432e-05
-3.64829e-05
7.70627e-05
-7.65378e-05
-3.70312e-05
7.46288e-05
-7.40804e-05
-3.76014e-05
7.20255e-05
-7.14554e-05
-3.81915e-05
6.92341e-05
-6.8644e-05
-3.87993e-05
6.62337e-05
-6.56259e-05
-3.94222e-05
6.30022e-05
-6.23793e-05
-4.00575e-05
5.9517e-05
-5.88817e-05
-4.07025e-05
5.57558e-05
-5.51108e-05
-4.13546e-05
5.1697e-05
-5.10449e-05
-4.20112e-05
4.73205e-05
-4.6664e-05
-4.26699e-05
4.2608e-05
-4.19493e-05
-4.33285e-05
3.75431e-05
-3.68845e-05
3.2112e-05
-4.39849e-05
-3.14556e-05
1.32213e-09
4.50429e-07
4.3179e-09
1.35268e-06
7.98754e-09
2.2702e-06
1.12643e-08
3.2024e-06
1.30194e-08
4.14861e-06
1.20686e-08
5.10809e-06
7.18158e-09
6.08005e-06
-2.90932e-09
7.06368e-06
-1.9499e-08
8.05811e-06
-4.38987e-08
9.06248e-06
-7.74249e-08
1.00759e-05
-1.21387e-07
1.10975e-05
-1.77074e-07
1.21265e-05
-2.45744e-07
1.3162e-05
-3.28609e-07
1.42034e-05
-4.26823e-07
1.525e-05
-5.41471e-07
1.63014e-05
-6.73556e-07
1.73573e-05
-8.23985e-07
1.84173e-05
-9.93567e-07
1.94815e-05
-1.18299e-06
2.05502e-05
-1.39284e-06
2.16238e-05
-1.62356e-06
2.27029e-05
-1.87546e-06
2.37885e-05
-2.14874e-06
2.48819e-05
-2.44345e-06
2.59846e-05
-2.75951e-06
2.70983e-05
-3.09671e-06
2.82252e-05
-3.45474e-06
2.93676e-05
-3.83313e-06
3.0528e-05
-4.23133e-06
3.17094e-05
-4.6487e-06
3.29148e-05
-5.08448e-06
3.41474e-05
-5.53787e-06
3.54104e-05
-6.00796e-06
3.67074e-05
-6.49382e-06
3.80417e-05
-6.99446e-06
3.94166e-05
-7.50886e-06
4.08355e-05
-8.03598e-06
4.23014e-05
-8.57475e-06
4.38169e-05
-9.1241e-06
4.53847e-05
-9.68294e-06
4.70065e-05
-1.02502e-05
4.8684e-05
-1.08247e-05
5.04179e-05
-1.14055e-05
5.22084e-05
-1.19913e-05
5.4055e-05
-1.2581e-05
5.59561e-05
-1.31735e-05
5.79095e-05
-1.37675e-05
5.99119e-05
-1.43618e-05
6.19588e-05
-1.49552e-05
6.40448e-05
-1.55463e-05
6.61634e-05
-1.61337e-05
6.83069e-05
-1.6716e-05
7.04664e-05
-1.72918e-05
7.26318e-05
-1.78596e-05
7.4792e-05
-1.84178e-05
7.69349e-05
-1.8965e-05
7.90471e-05
-1.94997e-05
8.11146e-05
-2.00206e-05
8.31227e-05
-2.05263e-05
8.50558e-05
-2.10158e-05
8.68983e-05
-2.1488e-05
8.86343e-05
-2.19421e-05
9.02483e-05
-2.23778e-05
9.1725e-05
-2.27948e-05
9.30502e-05
-2.31932e-05
9.42108e-05
-2.35736e-05
9.51952e-05
-2.39369e-05
9.59935e-05
-2.42844e-05
9.65982e-05
-2.46177e-05
9.70041e-05
-2.4939e-05
9.72082e-05
-2.52506e-05
9.72105e-05
-2.55553e-05
9.70133e-05
-2.58561e-05
9.66215e-05
-2.61561e-05
9.60419e-05
-2.64586e-05
9.52832e-05
-2.67667e-05
9.43554e-05
-2.70838e-05
9.32689e-05
-2.74128e-05
9.20344e-05
-2.77563e-05
9.06614e-05
-2.81169e-05
8.91585e-05
-2.84963e-05
8.75318e-05
-2.88962e-05
8.57849e-05
-2.93175e-05
8.3918e-05
-2.97606e-05
8.19283e-05
-3.02257e-05
7.98087e-05
-3.07121e-05
7.75491e-05
-3.1219e-05
7.51357e-05
-3.17452e-05
7.25517e-05
-3.22891e-05
6.9778e-05
-3.28489e-05
6.67936e-05
-3.3423e-05
6.35762e-05
-3.40092e-05
6.01033e-05
-3.46059e-05
5.63524e-05
-3.5211e-05
5.23022e-05
-3.5823e-05
4.79326e-05
-3.64404e-05
4.32253e-05
-3.70616e-05
3.81643e-05
3.27359e-05
-3.76855e-05
2.70848e-09
4.4772e-07
9.8377e-09
1.34555e-06
2.04015e-08
2.25964e-06
3.33423e-08
3.18946e-06
4.75349e-08
4.13442e-06
6.17932e-08
5.09383e-06
7.48783e-08
6.06697e-06
8.55068e-08
7.05305e-06
9.23605e-08
8.05126e-06
9.4097e-08
9.06074e-06
8.9361e-08
1.00806e-05
7.67961e-08
1.11101e-05
5.50582e-08
1.21482e-05
2.28279e-08
1.31942e-05
-2.11755e-08
1.42474e-05
-7.8181e-08
1.5307e-05
-1.49352e-07
1.63726e-05
-2.35775e-07
1.74437e-05
-3.38442e-07
1.852e-05
-4.58248e-07
1.96013e-05
-5.9597e-07
2.06879e-05
-7.52265e-07
2.17801e-05
-9.27662e-07
2.28783e-05
-1.12255e-06
2.39834e-05
-1.33718e-06
2.50966e-05
-1.57166e-06
2.62191e-05
-1.82596e-06
2.73526e-05
-2.09989e-06
2.84991e-05
-2.39316e-06
2.96608e-05
-2.70531e-06
3.08402e-05
-3.03578e-06
3.20399e-05
-3.38388e-06
3.32629e-05
-3.74884e-06
3.45123e-05
-4.12978e-06
3.57914e-05
-4.52575e-06
3.71034e-05
-4.93572e-06
3.84517e-05
-5.35864e-06
3.98396e-05
-5.79339e-06
4.12703e-05
-6.23883e-06
4.27468e-05
-6.69381e-06
4.42719e-05
-7.15717e-06
4.5848e-05
-7.62775e-06
4.74771e-05
-8.1044e-06
4.91606e-05
-8.58597e-06
5.08994e-05
-9.07132e-06
5.26938e-05
-9.55933e-06
5.4543e-05
-1.00489e-05
5.64457e-05
-1.05389e-05
5.83995e-05
-1.10282e-05
6.04012e-05
-1.15158e-05
6.24464e-05
-1.20005e-05
6.45295e-05
-1.24812e-05
6.66442e-05
-1.29569e-05
6.87825e-05
-1.34263e-05
7.09358e-05
-1.38884e-05
7.30939e-05
-1.43422e-05
7.52457e-05
-1.47864e-05
7.73791e-05
-1.52203e-05
7.94809e-05
-1.56426e-05
8.1537e-05
-1.60527e-05
8.35328e-05
-1.64498e-05
8.54529e-05
-1.68333e-05
8.72817e-05
-1.72027e-05
8.90037e-05
-1.75579e-05
9.06034e-05
-1.78988e-05
9.20659e-05
-1.82257e-05
9.33771e-05
-1.85392e-05
9.45243e-05
-1.884e-05
9.5496e-05
-1.91295e-05
9.62829e-05
-1.94089e-05
9.68776e-05
-1.96799e-05
9.72751e-05
-1.99447e-05
9.74729e-05
-2.02053e-05
9.74711e-05
-2.04641e-05
9.72722e-05
-2.07237e-05
9.68811e-05
-2.09867e-05
9.63048e-05
-2.12555e-05
9.55521e-05
-2.15328e-05
9.46327e-05
-2.18208e-05
9.3557e-05
-2.21218e-05
9.23354e-05
-2.24377e-05
9.09773e-05
-2.277e-05
8.94908e-05
-2.312e-05
8.78818e-05
-2.34885e-05
8.61534e-05
-2.38761e-05
8.43057e-05
-2.4283e-05
8.23351e-05
-2.47088e-05
8.02346e-05
-2.51532e-05
7.79935e-05
-2.56154e-05
7.55979e-05
-2.60945e-05
7.30308e-05
-2.65894e-05
7.02729e-05
-2.70989e-05
6.73031e-05
-2.76219e-05
6.40992e-05
-2.81572e-05
6.06386e-05
-2.87038e-05
5.6899e-05
-2.92607e-05
5.28591e-05
-2.9827e-05
4.84989e-05
-3.0402e-05
4.38003e-05
-3.0985e-05
3.87473e-05
3.33264e-05
-3.15755e-05
3.98195e-09
4.43738e-07
1.4918e-08
1.33461e-06
3.1847e-08
2.24271e-06
5.37325e-08
3.16758e-06
7.94662e-08
4.10869e-06
1.07874e-07
5.06542e-06
1.37723e-07
6.03712e-06
1.6773e-07
7.02305e-06
1.96568e-07
8.02242e-06
2.22878e-07
9.03443e-06
2.45284e-07
1.00582e-05
2.62396e-07
1.10929e-05
2.72832e-07
1.21378e-05
2.75223e-07
1.31918e-05
2.68234e-07
1.42544e-05
2.50573e-07
1.53247e-05
2.21009e-07
1.64022e-05
1.78383e-07
1.74863e-05
1.21622e-07
1.85767e-05
4.9753e-08
1.96732e-05
-3.80838e-08
2.07758e-05
-1.42627e-07
2.18846e-05
-2.64482e-07
2.30001e-05
-4.04116e-07
2.41231e-05
-5.61847e-07
2.52543e-05
-7.37847e-07
2.63951e-05
-9.32132e-07
2.75469e-05
-1.14457e-06
2.87116e-05
-1.37488e-06
2.98911e-05
-1.62263e-06
3.10879e-05
-1.88726e-06
3.23045e-05
-2.16808e-06
3.35437e-05
-2.46429e-06
3.48085e-05
-2.77497e-06
3.6102e-05
-3.09913e-06
3.74275e-05
-3.43568e-06
3.87882e-05
-3.78348e-06
4.01874e-05
-4.14136e-06
4.16282e-05
-4.5081e-06
4.31135e-05
-4.88247e-06
4.46463e-05
-5.26324e-06
4.62288e-05
-5.64917e-06
4.7863e-05
-6.03905e-06
4.95505e-05
-6.43171e-06
5.12921e-05
-6.82598e-06
5.3088e-05
-7.22073e-06
5.49377e-05
-7.6149e-06
5.68398e-05
-8.00741e-06
5.87921e-05
-8.39728e-06
6.07911e-05
-8.78352e-06
6.28326e-05
-9.16519e-06
6.49112e-05
-9.54139e-06
6.70204e-05
-9.91127e-06
6.91524e-05
-1.0274e-05
7.12985e-05
-1.06288e-05
7.34487e-05
-1.0975e-05
7.55919e-05
-1.13118e-05
7.7716e-05
-1.16388e-05
7.98079e-05
-1.19554e-05
8.18536e-05
-1.22613e-05
8.38387e-05
-1.25562e-05
8.57478e-05
-1.284e-05
8.75656e-05
-1.31128e-05
8.92766e-05
-1.33749e-05
9.08655e-05
-1.36266e-05
9.23177e-05
-1.38688e-05
9.36193e-05
-1.41022e-05
9.47577e-05
-1.4328e-05
9.57219e-05
-1.45476e-05
9.65025e-05
-1.47623e-05
9.70924e-05
-1.4974e-05
9.74868e-05
-1.51845e-05
9.76834e-05
-1.53958e-05
9.76823e-05
-1.56098e-05
9.74862e-05
-1.58286e-05
9.70999e-05
-1.60544e-05
9.65306e-05
-1.62889e-05
9.57866e-05
-1.6534e-05
9.48778e-05
-1.67913e-05
9.38143e-05
-1.70623e-05
9.26063e-05
-1.73481e-05
9.1263e-05
-1.76495e-05
8.97922e-05
-1.79673e-05
8.81995e-05
-1.83017e-05
8.64878e-05
-1.86529e-05
8.46568e-05
-1.90207e-05
8.27029e-05
-1.94048e-05
8.06187e-05
-1.98048e-05
7.83935e-05
-2.02201e-05
7.60132e-05
-2.06501e-05
7.34608e-05
-2.10943e-05
7.07171e-05
-2.1552e-05
6.77608e-05
-2.20228e-05
6.457e-05
-2.25063e-05
6.11221e-05
-2.30021e-05
5.73948e-05
-2.35101e-05
5.33671e-05
-2.40301e-05
4.90189e-05
-2.45623e-05
4.43324e-05
-2.51066e-05
3.92917e-05
3.38831e-05
-2.56633e-05
5.13806e-09
4.386e-07
1.9542e-08
1.32021e-06
4.22854e-08
2.21996e-06
7.23642e-08
3.1375e-06
1.08699e-07
4.07235e-06
1.50141e-07
5.02398e-06
1.95476e-07
5.99178e-06
2.43435e-07
6.97509e-06
2.92697e-07
7.97316e-06
3.41905e-07
8.98522e-06
3.89673e-07
1.00105e-05
4.34595e-07
1.1048e-05
4.75264e-07
1.20971e-05
5.1028e-07
1.31568e-05
5.38264e-07
1.42264e-05
5.57877e-07
1.53051e-05
5.67829e-07
1.63922e-05
5.66898e-07
1.74872e-05
5.53942e-07
1.85897e-05
5.27916e-07
1.96992e-05
4.87882e-07
2.08158e-05
4.33024e-07
2.19395e-05
3.62656e-07
2.30705e-05
2.76238e-07
2.42095e-05
1.73377e-07
2.53572e-05
5.38337e-08
2.65146e-05
-8.24689e-08
2.76832e-05
-2.3545e-07
2.88646e-05
-4.04868e-07
3.00606e-05
-5.90329e-07
3.12734e-05
-7.91288e-07
3.25055e-05
-1.00706e-06
3.37595e-05
-1.23683e-06
3.50383e-05
-1.47967e-06
3.63449e-05
-1.73455e-06
3.76824e-05
-2.00034e-06
3.9054e-05
-2.27585e-06
4.04629e-05
-2.55985e-06
4.19121e-05
-2.85105e-06
4.34047e-05
-3.14815e-06
4.49434e-05
-3.44986e-06
4.65305e-05
-3.7549e-06
4.81681e-05
-4.06198e-06
4.98576e-05
-4.36991e-06
5.16e-05
-4.67748e-06
5.33956e-05
-4.98359e-06
5.52438e-05
-5.28717e-06
5.71434e-05
-5.58723e-06
5.90921e-05
-5.88283e-06
6.10867e-05
-6.17312e-06
6.31229e-05
-6.45732e-06
6.51954e-05
-6.73472e-06
6.72978e-05
-7.00467e-06
6.94224e-05
-7.26663e-06
7.15605e-05
-7.52014e-06
7.37022e-05
-7.76479e-06
7.58366e-05
-8.00033e-06
7.79515e-05
-8.22656e-06
8.00341e-05
-8.44344e-06
8.20705e-05
-8.65104e-06
8.40462e-05
-8.84956e-06
8.59463e-05
-9.03936e-06
8.77554e-05
-9.22097e-06
8.94582e-05
-9.39508e-06
9.10396e-05
-9.56253e-06
9.24851e-05
-9.72437e-06
9.37811e-05
-9.88177e-06
9.49151e-05
-1.00361e-05
9.58762e-05
-1.01888e-05
9.66552e-05
-1.03415e-05
9.72451e-05
-1.04959e-05
9.76412e-05
-1.06536e-05
9.78412e-05
-1.08165e-05
9.78452e-05
-1.09861e-05
9.76558e-05
-1.11642e-05
9.7278e-05
-1.13521e-05
9.67185e-05
-1.15514e-05
9.59858e-05
-1.1763e-05
9.50894e-05
-1.19881e-05
9.40394e-05
-1.22272e-05
9.28454e-05
-1.24808e-05
9.15167e-05
-1.27494e-05
9.00608e-05
-1.30328e-05
8.84829e-05
-1.33309e-05
8.6786e-05
-1.36437e-05
8.49696e-05
-1.39706e-05
8.30298e-05
-1.43113e-05
8.09594e-05
-1.46655e-05
7.87476e-05
-1.50327e-05
7.63804e-05
-1.54128e-05
7.38409e-05
-1.58055e-05
7.11098e-05
-1.62109e-05
6.81663e-05
-1.66292e-05
6.49882e-05
-1.70606e-05
6.15534e-05
-1.75055e-05
5.78398e-05
-1.79645e-05
5.38261e-05
-1.84383e-05
4.94927e-05
-1.89276e-05
4.48217e-05
-1.94332e-05
3.97972e-05
3.44058e-05
-1.99559e-05
6.17539e-09
4.32425e-07
2.3702e-08
1.30268e-06
5.16974e-08
2.19197e-06
8.91996e-08
3.1e-06
1.35169e-07
4.02638e-06
1.88494e-07
4.97066e-06
2.47991e-07
5.93229e-06
3.12418e-07
6.91066e-06
3.80477e-07
7.9051e-06
4.50823e-07
8.91487e-06
5.22076e-07
9.9392e-06
5.92832e-07
1.09773e-05
6.61671e-07
1.20283e-05
7.27175e-07
1.30913e-05
7.87938e-07
1.41656e-05
8.42585e-07
1.52504e-05
8.89782e-07
1.6345e-05
9.28254e-07
1.74488e-05
9.56801e-07
1.85611e-05
9.7431e-07
1.96817e-05
9.79775e-07
2.08103e-05
9.72306e-07
2.19469e-05
9.51141e-07
2.30917e-05
9.15663e-07
2.42449e-05
8.65403e-07
2.54074e-05
8.00054e-07
2.658e-05
7.19469e-07
2.77638e-05
6.23669e-07
2.89604e-05
5.12843e-07
3.01714e-05
3.87343e-07
3.13989e-05
2.47683e-07
3.26452e-05
9.4527e-08
3.39127e-05
-7.13194e-08
3.52042e-05
-2.48921e-07
3.65225e-05
-4.37227e-07
3.78707e-05
-6.35091e-07
3.92519e-05
-8.41285e-07
4.06691e-05
-1.05452e-06
4.21254e-05
-1.27347e-06
4.36237e-05
-1.49677e-06
4.51667e-05
-1.72308e-06
4.67568e-05
-1.95105e-06
4.8396e-05
-2.17938e-06
5.00859e-05
-2.4068e-06
5.18274e-05
-2.63211e-06
5.36209e-05
-2.85419e-06
5.54659e-05
-3.072e-06
5.73612e-05
-3.28458e-06
5.93047e-05
-3.49107e-06
6.12932e-05
-3.69072e-06
6.33225e-05
-3.88288e-06
6.53876e-05
-4.06702e-06
6.74819e-05
-4.24269e-06
6.95981e-05
-4.4096e-06
7.17274e-05
-4.56755e-06
7.38602e-05
-4.71646e-06
7.59855e-05
-4.8564e-06
7.80915e-05
-4.98756e-06
8.01653e-05
-5.11026e-06
8.21932e-05
-5.22499e-06
8.4161e-05
-5.33237e-06
8.60537e-05
-5.43318e-06
8.78562e-05
-5.52833e-06
8.95533e-05
-5.61891e-06
9.11302e-05
-5.70613e-06
9.25724e-05
-5.79135e-06
9.38663e-05
-5.87601e-06
9.49998e-05
-5.96167e-06
9.59618e-05
-6.04994e-06
9.67435e-05
-6.14248e-06
9.73376e-05
-6.2409e-06
9.77396e-05
-6.34681e-06
9.79471e-05
-6.46172e-06
9.79601e-05
-6.587e-06
9.77811e-05
-6.72387e-06
9.74149e-05
-6.87335e-06
9.6868e-05
-7.03626e-06
9.61487e-05
-7.21315e-06
9.52663e-05
-7.40435e-06
9.42306e-05
-7.60997e-06
9.30511e-05
-7.82988e-06
9.17366e-05
-8.0638e-06
9.02947e-05
-8.31128e-06
8.87304e-05
-8.57181e-06
8.70465e-05
-8.84483e-06
8.52426e-05
-9.12982e-06
8.33148e-05
-9.42633e-06
8.12559e-05
-9.73404e-06
7.90554e-05
-1.00528e-05
7.66992e-05
-1.03828e-05
7.41708e-05
-1.07241e-05
7.14512e-05
-1.10775e-05
6.85196e-05
-1.14435e-05
6.53543e-05
-1.18232e-05
6.19331e-05
-1.22177e-05
5.82342e-05
-1.26282e-05
5.42366e-05
-1.30561e-05
4.99206e-05
-1.35028e-05
4.52684e-05
-1.39698e-05
4.02642e-05
3.48945e-05
-1.44585e-05
7.09387e-09
4.25331e-07
2.73977e-08
1.28238e-06
6.00804e-08
2.15929e-06
1.04231e-07
3.05585e-06
1.58858e-07
3.97175e-06
2.22897e-07
4.90662e-06
2.95209e-07
5.85998e-06
3.7459e-07
6.83128e-06
4.59775e-07
7.81992e-06
5.49447e-07
8.8252e-06
6.42248e-07
9.8464e-06
7.36783e-07
1.08827e-05
8.31639e-07
1.19334e-05
9.25393e-07
1.29976e-05
1.01663e-06
1.40744e-05
1.10394e-06
1.51631e-05
1.18597e-06
1.6263e-05
1.2614e-06
1.73733e-05
1.32898e-06
1.84935e-05
1.38755e-06
1.96232e-05
1.43603e-06
2.07619e-05
1.47346e-06
2.19095e-05
1.49902e-06
2.30661e-05
1.51201e-06
2.4232e-05
1.51188e-06
2.54075e-05
1.49826e-06
2.65936e-05
1.47093e-06
2.77911e-05
1.42984e-06
2.90014e-05
1.37512e-06
3.02261e-05
1.30707e-06
3.14669e-05
1.22615e-06
3.27261e-05
1.13301e-06
3.40058e-05
1.02842e-06
3.53087e-05
9.13308e-07
3.66376e-05
7.88725e-07
3.79953e-05
6.55831e-07
3.93848e-05
5.15878e-07
4.0809e-05
3.70184e-07
4.22711e-05
2.20122e-07
4.37738e-05
6.70867e-08
4.53197e-05
-8.75182e-08
4.69114e-05
-2.42306e-07
4.85508e-05
-3.95926e-07
5.02395e-05
-5.47083e-07
5.19786e-05
-6.94553e-07
5.37684e-05
-8.37201e-07
5.56086e-05
-9.73994e-07
5.7498e-05
-1.10401e-06
5.94347e-05
-1.22645e-06
6.14156e-05
-1.34065e-06
6.34367e-05
-1.44607e-06
6.5493e-05
-1.54232e-06
6.75782e-05
-1.62916e-06
6.96849e-05
-1.70648e-06
7.18047e-05
-1.77434e-06
7.3928e-05
-1.83295e-06
7.60441e-05
-1.88267e-06
7.81412e-05
-1.92402e-06
8.02066e-05
-1.95769e-06
8.22269e-05
-1.98451e-06
8.41878e-05
-2.00549e-06
8.60747e-05
-2.02178e-06
8.78725e-05
-2.03467e-06
8.95662e-05
-2.04558e-06
9.11411e-05
-2.05607e-06
9.25828e-05
-2.06776e-06
9.3878e-05
-2.08236e-06
9.50144e-05
-2.10161e-06
9.59811e-05
-2.12725e-06
9.67691e-05
-2.16095e-06
9.73713e-05
-2.20435e-06
9.7783e-05
-2.2589e-06
9.80016e-05
-2.32594e-06
9.80271e-05
-2.40655e-06
9.78617e-05
-2.5016e-06
9.75099e-05
-2.61169e-06
9.69781e-05
-2.73714e-06
9.62742e-05
-2.87799e-06
9.54072e-05
-3.03402e-06
9.43866e-05
-3.20476e-06
9.32218e-05
-3.38958e-06
9.19214e-05
-3.58766e-06
9.04928e-05
-3.79814e-06
8.89409e-05
-4.02012e-06
8.72685e-05
-4.25277e-06
8.54752e-05
-4.49541e-06
8.35574e-05
-4.74753e-06
8.15081e-05
-5.0089e-06
7.93167e-05
-5.27956e-06
7.69699e-05
-5.55988e-06
7.44511e-05
-5.85055e-06
7.17419e-05
-6.15259e-06
6.88216e-05
-6.46729e-06
6.5669e-05
-6.79622e-06
6.2262e-05
-7.14113e-06
5.85791e-05
-7.50395e-06
5.45994e-05
-7.8867e-06
5.03034e-05
-8.29143e-06
4.56732e-05
-8.7202e-06
4.0693e-05
3.53493e-05
-9.17502e-06
7.89566e-09
4.17435e-07
3.06357e-08
1.25964e-06
6.74465e-08
2.12248e-06
1.17475e-07
3.00582e-06
1.79788e-07
3.90944e-06
2.53374e-07
4.83303e-06
3.3715e-07
5.7762e-06
4.2996e-07
6.73847e-06
5.30584e-07
7.71929e-06
6.37746e-07
8.71804e-06
7.50119e-07
9.73403e-06
8.66336e-07
1.07665e-05
9.85001e-07
1.18147e-05
1.1047e-06
1.28779e-05
1.22402e-06
1.39551e-05
1.34154e-06
1.50456e-05
1.45589e-06
1.61487e-05
1.56572e-06
1.72635e-05
1.66974e-06
1.83895e-05
1.76675e-06
1.95262e-05
1.85561e-06
2.0673e-05
1.93531e-06
2.18298e-05
2.00495e-06
2.29965e-05
2.06377e-06
2.41731e-05
2.11115e-06
2.53602e-05
2.14663e-06
2.65581e-05
2.16992e-06
2.77678e-05
2.1809e-06
2.89905e-05
2.17964e-06
3.02274e-05
2.16637e-06
3.14802e-05
2.14151e-06
3.27509e-05
2.10564e-06
3.40417e-05
2.05951e-06
3.53549e-05
2.00403e-06
3.66931e-05
1.94022e-06
3.80591e-05
1.86925e-06
3.94557e-05
1.79239e-06
4.08859e-05
1.71096e-06
4.23525e-05
1.62636e-06
4.38583e-05
1.54004e-06
4.54061e-05
1.45342e-06
4.6998e-05
1.36793e-06
4.86363e-05
1.28498e-06
5.03225e-05
1.20587e-06
5.20577e-05
1.13187e-06
5.38424e-05
1.06413e-06
5.56763e-05
1.00367e-06
5.75585e-05
9.51391e-07
5.9487e-05
9.08056e-07
6.1459e-05
8.74264e-07
6.34705e-05
8.50451e-07
6.55168e-05
8.36886e-07
6.75917e-05
8.3366e-07
6.96881e-05
8.40687e-07
7.17977e-05
8.57698e-07
7.3911e-05
8.84241e-07
7.60175e-05
9.19682e-07
7.81057e-05
9.63203e-07
8.01631e-05
1.01381e-06
8.21763e-05
1.07033e-06
8.41313e-05
1.13143e-06
8.60136e-05
1.19561e-06
8.78083e-05
1.26126e-06
8.95006e-05
1.32662e-06
9.10757e-05
1.38986e-06
9.25196e-05
1.44906e-06
9.38188e-05
1.50232e-06
9.49611e-05
1.5477e-06
9.59357e-05
1.58335e-06
9.67334e-05
1.60753e-06
9.73472e-05
1.61865e-06
9.77719e-05
1.61531e-06
9.8005e-05
1.59636e-06
9.80461e-05
1.56094e-06
9.78971e-05
1.5085e-06
9.75624e-05
1.43879e-06
9.70478e-05
1.35194e-06
9.63611e-05
1.24834e-06
9.55108e-05
1.12871e-06
9.45062e-05
9.94004e-07
9.33565e-05
8.45348e-07
9.20701e-05
6.8399e-07
9.06541e-05
5.11209e-07
8.91137e-05
3.28223e-07
8.74515e-05
1.3611e-07
8.56674e-05
-6.42793e-08
8.37578e-05
-2.72393e-07
8.17162e-05
-4.88042e-07
7.95324e-05
-7.11431e-07
7.71933e-05
-9.43187e-07
7.46829e-05
-1.18436e-06
7.1983e-05
-1.43638e-06
6.90737e-05
-1.70107e-06
6.59337e-05
-1.98054e-06
6.25415e-05
-2.27714e-06
5.88757e-05
-2.5934e-06
5.49157e-05
-2.93196e-06
5.06419e-05
-3.29548e-06
4.60367e-05
-3.68661e-06
4.10841e-05
3.57706e-05
-4.10792e-06
8.58399e-09
4.08852e-07
3.34276e-08
1.23479e-06
7.38198e-08
2.08208e-06
1.28971e-07
2.95067e-06
1.98012e-07
3.8404e-06
2.79995e-07
4.75105e-06
3.73897e-07
5.6823e-06
4.78621e-07
6.63375e-06
5.93003e-07
7.60491e-06
7.15817e-07
8.59523e-06
8.45781e-07
9.60407e-06
9.81565e-07
1.06307e-05
1.1218e-06
1.16745e-05
1.26511e-06
1.27346e-05
1.41007e-06
1.38101e-05
1.55529e-06
1.49004e-05
1.69937e-06
1.60046e-05
1.84096e-06
1.71219e-05
1.97874e-06
1.82517e-05
2.11147e-06
1.93934e-05
2.23797e-06
2.05465e-05
2.35719e-06
2.17106e-05
2.46815e-06
2.28855e-05
2.57003e-06
2.40713e-05
2.66214e-06
2.5268e-05
2.74396e-06
2.64763e-05
2.81511e-06
2.76967e-05
2.8754e-06
2.89302e-05
2.92482e-06
3.01779e-05
2.96355e-06
3.14415e-05
2.99192e-06
3.27226e-05
3.01049e-06
3.40231e-05
3.01993e-06
3.53454e-05
3.02113e-06
3.66919e-05
3.01508e-06
3.80651e-05
3.00294e-06
3.94679e-05
2.98596e-06
4.09029e-05
2.96549e-06
4.2373e-05
2.94293e-06
4.38809e-05
2.91975e-06
4.54292e-05
2.89742e-06
4.70204e-05
2.87739e-06
4.86563e-05
2.8611e-06
5.03388e-05
2.8499e-06
5.20689e-05
2.84507e-06
5.38472e-05
2.84778e-06
5.56736e-05
2.85907e-06
5.75472e-05
2.87984e-06
5.94662e-05
2.9108e-06
6.1428e-05
2.95251e-06
6.34288e-05
3.00533e-06
6.5464e-05
3.06944e-06
6.75276e-05
3.1448e-06
6.96128e-05
3.23116e-06
7.17113e-05
3.32807e-06
7.38141e-05
3.43487e-06
7.59107e-05
3.55068e-06
7.79899e-05
3.67445e-06
8.00393e-05
3.80487e-06
8.20459e-05
3.94051e-06
8.39956e-05
4.07972e-06
8.58743e-05
4.2207e-06
8.76673e-05
4.36152e-06
8.93597e-05
4.50015e-06
9.09371e-05
4.63447e-06
9.23853e-05
4.76234e-06
9.3691e-05
4.88161e-06
9.48419e-05
4.9902e-06
9.58271e-05
5.08612e-06
9.66375e-05
5.16758e-06
9.72657e-05
5.23297e-06
9.77065e-05
5.28095e-06
9.7957e-05
5.31051e-06
9.80165e-05
5.32096e-06
9.78867e-05
5.31201e-06
9.75713e-05
5.28374e-06
9.70761e-05
5.23661e-06
9.64082e-05
5.17142e-06
9.5576e-05
5.0893e-06
9.45883e-05
4.99163e-06
9.34542e-05
4.87998e-06
9.21818e-05
4.75597e-06
9.07781e-05
4.62126e-06
8.92484e-05
4.47736e-06
8.75954e-05
4.32558e-06
8.58191e-05
4.16694e-06
8.39165e-05
4.00205e-06
8.18811e-05
3.83107e-06
7.97034e-05
3.65368e-06
7.73707e-05
3.46903e-06
7.48675e-05
3.27577e-06
7.21763e-05
3.07209e-06
6.92773e-05
2.85573e-06
6.615e-05
2.62407e-06
6.27732e-05
2.37424e-06
5.91256e-05
2.10313e-06
5.51868e-05
1.80754e-06
5.09375e-05
1.48423e-06
4.636e-05
1.12999e-06
4.14384e-05
3.61589e-05
7.4171e-07
9.16313e-09
3.99688e-07
3.57895e-08
1.20817e-06
7.92344e-08
2.03864e-06
1.38776e-07
2.89113e-06
2.13614e-07
3.76556e-06
3.0287e-07
4.66179e-06
4.05589e-07
5.57958e-06
5.2074e-07
6.51859e-06
6.47224e-07
7.47843e-06
7.83872e-07
8.45858e-06
9.29459e-07
9.45848e-06
1.0827e-06
1.04775e-05
1.24228e-06
1.15149e-05
1.40684e-06
1.257e-05
1.57499e-06
1.3642e-05
1.74536e-06
1.473e-05
1.91655e-06
1.58334e-05
2.08721e-06
1.69513e-05
2.25601e-06
1.80829e-05
2.42167e-06
1.92278e-05
2.58301e-06
2.03852e-05
2.73889e-06
2.15547e-05
2.88832e-06
2.27361e-05
3.0304e-06
2.39292e-05
3.16438e-06
2.51341e-05
3.28966e-06
2.6351e-05
3.40579e-06
2.75806e-05
3.51252e-06
2.88234e-05
3.60976e-06
3.00807e-05
3.69759e-06
3.13537e-05
3.7763e-06
3.26438e-05
3.84637e-06
3.39531e-05
3.90843e-06
3.52834e-05
3.9633e-06
3.6637e-05
4.01195e-06
3.80165e-05
4.0555e-06
3.94243e-05
4.09519e-06
4.08632e-05
4.13236e-06
4.23358e-05
4.16842e-06
4.38448e-05
4.20485e-06
4.53928e-05
4.24314e-06
4.69821e-05
4.28477e-06
4.86147e-05
4.33121e-06
5.02924e-05
4.38384e-06
5.20163e-05
4.44398e-06
5.37871e-05
4.51281e-06
5.56048e-05
4.5914e-06
5.74686e-05
4.68063e-06
5.9377e-05
4.78122e-06
6.13274e-05
4.89369e-06
6.33164e-05
5.01836e-06
6.53393e-05
5.15531e-06
6.73907e-05
5.30441e-06
6.94637e-05
5.46529e-06
7.15504e-05
5.63734e-06
7.3642e-05
5.81974e-06
7.57283e-05
6.01139e-06
7.77983e-05
6.21101e-06
7.98397e-05
6.41708e-06
8.18398e-05
6.62788e-06
8.37848e-05
6.84151e-06
8.56607e-05
7.05589e-06
8.74529e-05
7.26882e-06
8.91468e-05
7.47801e-06
9.07279e-05
7.68107e-06
9.21822e-05
7.87564e-06
9.34964e-05
8.05937e-06
9.46582e-05
8.23e-06
9.56565e-05
8.38544e-06
9.64821e-05
8.52378e-06
9.71274e-05
8.64339e-06
9.75869e-05
8.74298e-06
9.78574e-05
8.82161e-06
9.79379e-05
8.87873e-06
9.78296e-05
8.91424e-06
9.75358e-05
8.92848e-06
9.70618e-05
8.92219e-06
9.64145e-05
8.89652e-06
9.56016e-05
8.85293e-06
9.46319e-05
8.79319e-06
9.35139e-05
8.71921e-06
9.22557e-05
8.63299e-06
9.08643e-05
8.5365e-06
8.93449e-05
8.43152e-06
8.77004e-05
8.31962e-06
8.5931e-05
8.20193e-06
8.40341e-05
8.07918e-06
8.20038e-05
7.95151e-06
7.9831e-05
7.81853e-06
7.75036e-05
7.67921e-06
7.50069e-05
7.53198e-06
7.23235e-05
7.37468e-06
6.94346e-05
7.20469e-06
6.632e-05
7.01895e-06
6.29589e-05
6.81409e-06
5.93304e-05
6.58651e-06
5.54144e-05
6.33248e-06
5.11916e-05
6.04821e-06
4.66442e-05
5.72999e-06
4.17566e-05
3.65147e-05
5.37416e-06
9.63848e-09
3.9005e-07
3.77415e-08
1.18006e-06
8.37326e-08
1.99265e-06
1.46961e-07
2.8279e-06
2.267e-07
3.68582e-06
3.22143e-07
4.56635e-06
4.3241e-07
5.46931e-06
5.56543e-07
6.39446e-06
6.93511e-07
7.34146e-06
8.42216e-07
8.30987e-06
1.00149e-06
9.2992e-06
1.17012e-06
1.03089e-05
1.34683e-06
1.13382e-05
1.53031e-06
1.23865e-05
1.71921e-06
1.34531e-05
1.91218e-06
1.45371e-05
2.10785e-06
1.56377e-05
2.30487e-06
1.67542e-05
2.50191e-06
1.78859e-05
2.69769e-06
1.9032e-05
2.89098e-06
2.01919e-05
3.08064e-06
2.1365e-05
3.26561e-06
2.25511e-05
3.44495e-06
2.37498e-05
3.61785e-06
2.49612e-05
3.78365e-06
2.61852e-05
3.94183e-06
2.74224e-05
4.09204e-06
2.86732e-05
4.23413e-06
2.99386e-05
4.36811e-06
3.12197e-05
4.49419e-06
3.25178e-05
4.61277e-06
3.38345e-05
4.72443e-06
3.51717e-05
4.82993e-06
3.65315e-05
4.93019e-06
3.79162e-05
5.02628e-06
3.93282e-05
5.11942e-06
4.077e-05
5.21093e-06
4.22443e-05
5.30221e-06
4.37536e-05
5.39476e-06
4.53003e-05
5.49006e-06
4.68868e-05
5.58963e-06
4.85151e-05
5.69495e-06
5.0187e-05
5.80745e-06
5.19038e-05
5.92846e-06
5.36661e-05
6.0592e-06
5.5474e-05
6.20075e-06
5.73271e-05
6.35403e-06
5.92237e-05
6.51973e-06
6.11617e-05
6.69839e-06
6.31377e-05
6.89026e-06
6.51474e-05
7.0954e-06
6.71855e-05
7.31359e-06
6.92455e-05
7.54438e-06
7.13197e-05
7.78702e-06
7.33994e-05
8.04055e-06
7.54748e-05
8.30372e-06
7.75351e-05
8.57504e-06
7.95684e-05
8.85278e-06
8.1562e-05
9.13502e-06
8.35026e-05
9.4196e-06
8.53761e-05
9.70422e-06
8.71683e-05
9.98642e-06
8.88646e-05
1.02637e-05
9.04507e-05
1.05334e-05
9.19125e-05
1.07929e-05
9.32369e-05
1.10397e-05
9.44113e-05
1.12714e-05
9.54248e-05
1.14858e-05
9.62677e-05
1.16807e-05
9.69324e-05
1.18547e-05
9.74129e-05
1.20063e-05
9.77058e-05
1.21346e-05
9.78095e-05
1.22393e-05
9.77249e-05
1.23203e-05
9.74548e-05
1.23781e-05
9.7004e-05
1.24138e-05
9.63788e-05
1.24287e-05
9.55867e-05
1.24246e-05
9.4636e-05
1.24036e-05
9.35349e-05
1.23678e-05
9.22915e-05
1.23197e-05
9.09125e-05
1.22615e-05
8.94032e-05
1.21951e-05
8.77667e-05
1.21224e-05
8.60037e-05
1.20447e-05
8.41118e-05
1.19628e-05
8.20857e-05
1.18769e-05
7.99169e-05
1.17865e-05
7.7594e-05
1.16906e-05
7.51028e-05
1.15873e-05
7.24268e-05
1.14742e-05
6.95477e-05
1.13484e-05
6.64458e-05
1.12064e-05
6.31008e-05
1.10446e-05
5.94923e-05
1.08587e-05
5.56003e-05
1.06446e-05
5.14056e-05
1.03981e-05
4.68908e-05
1.01148e-05
4.20398e-05
3.68388e-05
9.79073e-06
1.0016e-08
3.80034e-07
3.93056e-08
1.15077e-06
8.73626e-08
1.94459e-06
1.53609e-07
2.76165e-06
2.37392e-07
3.60204e-06
3.37984e-07
4.46576e-06
4.54581e-07
5.35272e-06
5.86302e-07
6.26274e-06
7.32193e-07
7.19557e-06
8.91229e-07
8.15084e-06
1.06232e-06
9.12811e-06
1.2443e-06
1.01269e-05
1.43597e-06
1.11465e-05
1.63607e-06
1.21864e-05
1.84331e-06
1.32458e-05
2.05636e-06
1.4324e-05
2.2739e-06
1.54202e-05
2.49458e-06
1.65336e-05
2.71709e-06
1.76634e-05
2.94014e-06
1.88089e-05
3.16251e-06
1.99695e-05
3.38301e-06
2.11445e-05
3.60057e-06
2.23336e-05
3.81419e-06
2.35362e-05
4.02302e-06
2.47523e-05
4.22633e-06
2.59819e-05
4.42354e-06
2.72252e-05
4.61423e-06
2.84825e-05
4.79816e-06
2.97547e-05
4.97528e-06
3.10426e-05
5.14571e-06
3.23473e-05
5.30978e-06
3.36704e-05
5.46799e-06
3.50135e-05
5.62104e-06
3.63785e-05
5.76979e-06
3.77675e-05
5.91527e-06
3.91827e-05
6.05866e-06
4.06267e-05
6.20123e-06
4.21017e-05
6.34439e-06
4.36104e-05
6.48961e-06
4.51551e-05
6.63839e-06
4.6738e-05
6.79226e-06
4.83613e-05
6.95272e-06
5.00266e-05
7.12122e-06