/*--------------------------------*- C++ -*----------------------------------*\
| =========                 |                                                 |
| \\      /  F ield         | OpenFOAM: The Open Source CFD Toolbox           |
|  \\    /   O peration     | Version:  2406                                  |
|   \\  /    A nd           | Website:  www.openfoam.com                      |
|    \\/     M anipulation  |                                                 |
\*---------------------------------------------------------------------------*/
FoamFile
{
    version     2.0;
    format      ascii;
    arch        "LSB;label=32;scalar=64";
    class       volVectorField;
    location    "14.975";
    object      U;
}
// * * * * * * * * * * * * * * * * * * * * * * * * * * * * * * * * * * * * * //

dimensions      [0 1 -1 0 0 0 0];

internalField   nonuniform List<vector> 
40000
(
(1.63682e-07 0.00450326 0)
(-8.48692e-07 0.0132915 0)
(-5.48884e-06 0.0219281 0)
(-1.57207e-05 0.0304067 0)
(-3.36911e-05 0.038721 0)
(-6.16881e-05 0.0468648 0)
(-0.000102086 0.0548321 0)
(-0.000157322 0.062617 0)
(-0.000229886 0.0702141 0)
(-0.000322294 0.0776185 0)
(-0.000437067 0.0848258 0)
(-0.000576712 0.0918325 0)
(-0.000743692 0.0986356 0)
(-0.000940406 0.105233 0)
(-0.00116916 0.111625 0)
(-0.00143216 0.117811 0)
(-0.00173146 0.123792 0)
(-0.00206897 0.129572 0)
(-0.00244641 0.135154 0)
(-0.00286531 0.140545 0)
(-0.003327 0.145752 0)
(-0.00383257 0.150782 0)
(-0.00438288 0.155647 0)
(-0.00497856 0.160357 0)
(-0.00561999 0.164925 0)
(-0.00630731 0.169365 0)
(-0.0070404 0.173693 0)
(-0.00781894 0.177923 0)
(-0.00864237 0.182072 0)
(-0.00950991 0.186158 0)
(-0.0104206 0.190198 0)
(-0.0113733 0.19421 0)
(-0.0123668 0.19821 0)
(-0.0133995 0.202216 0)
(-0.0144699 0.206242 0)
(-0.0155764 0.210305 0)
(-0.0167173 0.214417 0)
(-0.0178907 0.218589 0)
(-0.0190948 0.222832 0)
(-0.0203278 0.227152 0)
(-0.0215875 0.231554 0)
(-0.0228722 0.236041 0)
(-0.0241798 0.24061 0)
(-0.0255082 0.245258 0)
(-0.0268554 0.249978 0)
(-0.028219 0.254759 0)
(-0.029597 0.259586 0)
(-0.0309868 0.264442 0)
(-0.032386 0.269305 0)
(-0.0337919 0.274151 0)
(-0.0352017 0.278953 0)
(-0.0366123 0.283679 0)
(-0.0380207 0.288296 0)
(-0.0394233 0.292767 0)
(-0.0408166 0.297052 0)
(-0.042197 0.301112 0)
(-0.0435605 0.304904 0)
(-0.0449033 0.308383 0)
(-0.0462212 0.311506 0)
(-0.0475105 0.31423 0)
(-0.0487672 0.316512 0)
(-0.0499877 0.31831 0)
(-0.0511686 0.319586 0)
(-0.0523071 0.320307 0)
(-0.0534007 0.320441 0)
(-0.0544475 0.319964 0)
(-0.0554466 0.318859 0)
(-0.0563977 0.317112 0)
(-0.0573016 0.314722 0)
(-0.0581598 0.311691 0)
(-0.0589751 0.308033 0)
(-0.0597513 0.303769 0)
(-0.0604929 0.298927 0)
(-0.0612059 0.293543 0)
(-0.0618965 0.287659 0)
(-0.0625721 0.281321 0)
(-0.0632403 0.27458 0)
(-0.0639091 0.267486 0)
(-0.0645868 0.260091 0)
(-0.0652812 0.252444 0)
(-0.0659998 0.244588 0)
(-0.0667496 0.236563 0)
(-0.0675365 0.2284 0)
(-0.0683656 0.220122 0)
(-0.0692406 0.211742 0)
(-0.070164 0.203266 0)
(-0.0711369 0.194688 0)
(-0.0721592 0.185997 0)
(-0.0732295 0.177172 0)
(-0.0743451 0.168188 0)
(-0.0755026 0.159016 0)
(-0.0766977 0.149624 0)
(-0.0779255 0.13998 0)
(-0.0791807 0.130054 0)
(-0.0804579 0.119817 0)
(-0.0817517 0.109246 0)
(-0.0830569 0.098323 0)
(-0.0843684 0.0870338 0)
(-0.0856816 0.0753715 0)
(-0.0869924 0.0633347 0)
(1.08979e-06 0.00449737 0)
(5.2556e-06 0.0132834 0)
(1.23601e-05 0.0219275 0)
(1.99961e-05 0.0304235 0)
(2.56971e-05 0.0387652 0)
(2.71067e-05 0.0469464 0)
(2.17988e-05 0.0549608 0)
(7.24402e-06 0.0628025 0)
(-1.91589e-05 0.0704657 0)
(-6.00555e-05 0.0779452 0)
(-0.000118113 0.085236 0)
(-0.000195996 0.0923341 0)
(-0.000296342 0.0992359 0)
(-0.000421736 0.105939 0)
(-0.000574685 0.112441 0)
(-0.000757592 0.118743 0)
(-0.000972728 0.124844 0)
(-0.00122221 0.130747 0)
(-0.00150798 0.136455 0)
(-0.00183178 0.141972 0)
(-0.00219513 0.147306 0)
(-0.00259932 0.152462 0)
(-0.00304538 0.157451 0)
(-0.0035341 0.162283 0)
(-0.00406598 0.16697 0)
(-0.00464127 0.171525 0)
(-0.00525995 0.175962 0)
(-0.00592171 0.180296 0)
(-0.00662602 0.184544 0)
(-0.00737208 0.188721 0)
(-0.00815887 0.192846 0)
(-0.00898518 0.196935 0)
(-0.00984956 0.201005 0)
(-0.0107504 0.205073 0)
(-0.0116861 0.209154 0)
(-0.0126546 0.213264 0)
(-0.0136541 0.217416 0)
(-0.0146825 0.22162 0)
(-0.0157377 0.225888 0)
(-0.0168176 0.230226 0)
(-0.0179199 0.23464 0)
(-0.0190426 0.239132 0)
(-0.0201835 0.2437 0)
(-0.0213402 0.248341 0)
(-0.0225105 0.253047 0)
(-0.0236923 0.257809 0)
(-0.0248832 0.262611 0)
(-0.0260809 0.267436 0)
(-0.0272829 0.272264 0)
(-0.0284869 0.277069 0)
(-0.0296902 0.281824 0)
(-0.0308903 0.286498 0)
(-0.0320844 0.291057 0)
(-0.0332696 0.295464 0)
(-0.0344431 0.299681 0)
(-0.0356018 0.303666 0)
(-0.0367427 0.307378 0)
(-0.0378629 0.310773 0)
(-0.0389593 0.313808 0)
(-0.040029 0.316439 0)
(-0.0410692 0.318624 0)
(-0.0420776 0.320322 0)
(-0.0430519 0.321498 0)
(-0.0439903 0.322116 0)
(-0.0448917 0.322148 0)
(-0.0457551 0.321571 0)
(-0.0465807 0.320367 0)
(-0.047369 0.318526 0)
(-0.0481215 0.316046 0)
(-0.0488403 0.312933 0)
(-0.0495286 0.3092 0)
(-0.0501901 0.30487 0)
(-0.0508293 0.299971 0)
(-0.0514517 0.294541 0)
(-0.0520629 0.288621 0)
(-0.0526692 0.282259 0)
(-0.0532772 0.275504 0)
(-0.0538935 0.268408 0)
(-0.0545247 0.26102 0)
(-0.0551771 0.253389 0)
(-0.0558566 0.245557 0)
(-0.0565682 0.237562 0)
(-0.0573166 0.229434 0)
(-0.0581051 0.221194 0)
(-0.0589363 0.212854 0)
(-0.0598117 0.204418 0)
(-0.0607317 0.195879 0)
(-0.0616958 0.187224 0)
(-0.0627025 0.178432 0)
(-0.0637498 0.169476 0)
(-0.0648346 0.160327 0)
(-0.0659536 0.150951 0)
(-0.0671032 0.141319 0)
(-0.0682794 0.131398 0)
(-0.0694784 0.121161 0)
(-0.0706965 0.110585 0)
(-0.0719299 0.0996517 0)
(-0.0731755 0.0883485 0)
(-0.0744302 0.0766688 0)
(-0.0756914 0.0646116 0)
(2.00632e-06 0.00447708 0)
(1.11725e-05 0.0132332 0)
(2.95792e-05 0.0218579 0)
(5.44498e-05 0.0303453 0)
(8.30403e-05 0.0386893 0)
(0.000112951 0.0468835 0)
(0.00014173 0.0549218 0)
(0.000166789 0.062798 0)
(0.000185439 0.0705061 0)
(0.000194937 0.0780404 0)
(0.000192499 0.0853957 0)
(0.000175328 0.0925672 0)
(0.00014064 0.0995509 0)
(8.56845e-05 0.106343 0)
(7.78097e-06 0.112942 0)
(-9.56604e-05 0.119347 0)
(-0.000227108 0.125556 0)
(-0.000388883 0.131571 0)
(-0.00058313 0.137394 0)
(-0.000811796 0.143029 0)
(-0.0010766 0.148481 0)
(-0.00137904 0.153757 0)
(-0.00172032 0.158865 0)
(-0.00210138 0.163814 0)
(-0.0025229 0.168614 0)
(-0.00298524 0.17328 0)
(-0.00348848 0.177823 0)
(-0.00403239 0.182258 0)
(-0.00461646 0.186601 0)
(-0.00523993 0.190867 0)
(-0.00590173 0.195074 0)
(-0.00660059 0.199237 0)
(-0.00733499 0.203375 0)
(-0.00810321 0.207502 0)
(-0.00890337 0.211635 0)
(-0.00973343 0.215789 0)
(-0.0105912 0.219976 0)
(-0.0114746 0.224209 0)
(-0.012381 0.228498 0)
(-0.0133084 0.23285 0)
(-0.0142541 0.237271 0)
(-0.0152159 0.241762 0)
(-0.0161914 0.246324 0)
(-0.0171781 0.250952 0)
(-0.0181738 0.255641 0)
(-0.0191761 0.260379 0)
(-0.0201828 0.265152 0)
(-0.0211914 0.269944 0)
(-0.0221999 0.274733 0)
(-0.0232059 0.279495 0)
(-0.0242071 0.284202 0)
(-0.0252013 0.288824 0)
(-0.0261861 0.293326 0)
(-0.0271594 0.297673 0)
(-0.0281187 0.301825 0)
(-0.0290619 0.305743 0)
(-0.0299868 0.309383 0)
(-0.0308911 0.312703 0)
(-0.0317729 0.31566 0)
(-0.0326302 0.318211 0)
(-0.0334614 0.320315 0)
(-0.0342652 0.321931 0)
(-0.0350403 0.323024 0)
(-0.0357862 0.32356 0)
(-0.0365027 0.323511 0)
(-0.0371899 0.322855 0)
(-0.0378487 0.321576 0)
(-0.0384805 0.319665 0)
(-0.0390873 0.31712 0)
(-0.0396719 0.313948 0)
(-0.0402374 0.310163 0)
(-0.0407876 0.305789 0)
(-0.0413269 0.300855 0)
(-0.04186 0.295397 0)
(-0.0423919 0.28946 0)
(-0.042928 0.283088 0)
(-0.0434737 0.276333 0)
(-0.0440341 0.269243 0)
(-0.0446145 0.26187 0)
(-0.0452194 0.254259 0)
(-0.0458531 0.246453 0)
(-0.0465193 0.238489 0)
(-0.0472208 0.230394 0)
(-0.04796 0.222189 0)
(-0.0487381 0.213885 0)
(-0.0495559 0.205484 0)
(-0.0504134 0.196978 0)
(-0.0513097 0.188354 0)
(-0.0522436 0.179589 0)
(-0.0532132 0.170656 0)
(-0.0542166 0.161526 0)
(-0.0552513 0.152167 0)
(-0.056315 0.142545 0)
(-0.0574052 0.132631 0)
(-0.0585195 0.122398 0)
(-0.0596559 0.111822 0)
(-0.0608125 0.100885 0)
(-0.0619874 0.0895768 0)
(-0.0631794 0.0778893 0)
(-0.0643872 0.0658225 0)
(2.87524e-06 0.00444353 0)
(1.68008e-05 0.013144 0)
(4.59911e-05 0.0217243 0)
(8.73412e-05 0.0301787 0)
(0.000137869 0.0385012 0)
(0.000195159 0.0466856 0)
(0.000256765 0.0547257 0)
(0.000320062 0.062615 0)
(0.000382312 0.0703475 0)
(0.000440698 0.0779171 0)
(0.000492351 0.0853182 0)
(0.000534372 0.0925455 0)
(0.000563855 0.0995945 0)
(0.000577914 0.106461 0)
(0.000573717 0.113142 0)
(0.000548507 0.119636 0)
(0.000499638 0.12594 0)
(0.000424602 0.132056 0)
(0.00032106 0.137984 0)
(0.000186866 0.143728 0)
(2.00985e-05 0.149291 0)
(-0.00018092 0.154679 0)
(-0.000417597 0.159898 0)
(-0.000691059 0.164958 0)
(-0.00100213 0.169868 0)
(-0.00135131 0.17464 0)
(-0.00173881 0.179285 0)
(-0.0021645 0.183818 0)
(-0.00262795 0.188253 0)
(-0.0031284 0.192606 0)
(-0.00366482 0.196892 0)
(-0.00423588 0.201129 0)
(-0.00484003 0.205331 0)
(-0.00547545 0.209515 0)
(-0.00614013 0.213697 0)
(-0.00683189 0.217892 0)
(-0.00754842 0.222112 0)
(-0.00828726 0.226371 0)
(-0.00904591 0.230677 0)
(-0.00982181 0.235039 0)
(-0.0106124 0.239462 0)
(-0.011415 0.24395 0)
(-0.0122271 0.248501 0)
(-0.0130463 0.253114 0)
(-0.01387 0.25778 0)
(-0.0146959 0.262491 0)
(-0.0155217 0.267233 0)
(-0.0163451 0.271988 0)
(-0.017164 0.276736 0)
(-0.0179763 0.281453 0)
(-0.0187801 0.286112 0)
(-0.0195733 0.290682 0)
(-0.0203542 0.29513 0)
(-0.021121 0.29942 0)
(-0.021872 0.303512 0)
(-0.0226056 0.307368 0)
(-0.0233205 0.310944 0)
(-0.0240153 0.314199 0)
(-0.0246889 0.31709 0)
(-0.0253403 0.319574 0)
(-0.025969 0.32161 0)
(-0.0265746 0.32316 0)
(-0.0271569 0.324187 0)
(-0.0277164 0.32466 0)
(-0.0282538 0.324551 0)
(-0.0287702 0.323838 0)
(-0.0292673 0.322506 0)
(-0.0297471 0.320546 0)
(-0.0302122 0.317958 0)
(-0.0306657 0.314748 0)
(-0.0311108 0.310933 0)
(-0.0315513 0.306535 0)
(-0.0319912 0.301584 0)
(-0.0324348 0.296116 0)
(-0.0328863 0.290176 0)
(-0.03335 0.283808 0)
(-0.0338301 0.277062 0)
(-0.0343307 0.269989 0)
(-0.0348552 0.262636 0)
(-0.0354069 0.25505 0)
(-0.0359885 0.247272 0)
(-0.0366023 0.239337 0)
(-0.0372497 0.231273 0)
(-0.0379317 0.2231 0)
(-0.038649 0.214826 0)
(-0.0394013 0.206455 0)
(-0.0401883 0.197977 0)
(-0.0410091 0.189378 0)
(-0.0418626 0.180636 0)
(-0.0427476 0.171724 0)
(-0.0436628 0.162611 0)
(-0.044607 0.153265 0)
(-0.0455789 0.143655 0)
(-0.0465777 0.133751 0)
(-0.0476025 0.123525 0)
(-0.0486528 0.112955 0)
(-0.0497284 0.102023 0)
(-0.0508291 0.090717 0)
(-0.0519551 0.0790316 0)
(-0.0531065 0.0669663 0)
(3.69014e-06 0.00439787 0)
(2.21031e-05 0.0130192 0)
(6.14886e-05 0.0215319 0)
(0.000118455 0.0299307 0)
(0.000189823 0.0382097 0)
(0.000273189 0.0463628 0)
(0.000366134 0.0543836 0)
(0.000466034 0.0622659 0)
(0.000570124 0.0700032 0)
(0.000675548 0.0775893 0)
(0.000779382 0.0850181 0)
(0.000878654 0.0922841 0)
(0.000970366 0.099382 0)
(0.00105152 0.106307 0)
(0.00111917 0.113056 0)
(0.0011704 0.119625 0)
(0.00120242 0.126012 0)
(0.00121255 0.132218 0)
(0.00119827 0.138241 0)
(0.00115724 0.144083 0)
(0.00108736 0.149749 0)
(0.000986747 0.155241 0)
(0.000853809 0.160566 0)
(0.000687236 0.165731 0)
(0.000486032 0.170745 0)
(0.000249527 0.175618 0)
(-2.26157e-05 0.180362 0)
(-0.000330391 0.18499 0)
(-0.000673453 0.189515 0)
(-0.00105112 0.193951 0)
(-0.0014624 0.198315 0)
(-0.00190596 0.202621 0)
(-0.00238021 0.206886 0)
(-0.00288329 0.211126 0)
(-0.00341309 0.215355 0)
(-0.00396733 0.219588 0)
(-0.00454353 0.223839 0)
(-0.0051391 0.22812 0)
(-0.00575134 0.232441 0)
(-0.00637752 0.23681 0)
(-0.00701486 0.241234 0)
(-0.00766061 0.245714 0)
(-0.00831204 0.250252 0)
(-0.00896652 0.254845 0)
(-0.00962149 0.259486 0)
(-0.0102745 0.264167 0)
(-0.0109232 0.268874 0)
(-0.0115655 0.27359 0)
(-0.0121992 0.278296 0)
(-0.0128225 0.282968 0)
(-0.0134337 0.287579 0)
(-0.0140311 0.292099 0)
(-0.0146134 0.296495 0)
(-0.0151792 0.30073 0)
(-0.0157275 0.304768 0)
(-0.0162574 0.308567 0)
(-0.0167682 0.312087 0)
(-0.0172593 0.315286 0)
(-0.0177305 0.318121 0)
(-0.0181819 0.32055 0)
(-0.0186137 0.322533 0)
(-0.0190265 0.324032 0)
(-0.0194213 0.32501 0)
(-0.0197993 0.325438 0)
(-0.0201621 0.325286 0)
(-0.0205118 0.324535 0)
(-0.0208507 0.323169 0)
(-0.0211815 0.321181 0)
(-0.0215072 0.31857 0)
(-0.021831 0.315344 0)
(-0.0221566 0.311517 0)
(-0.0224874 0.307113 0)
(-0.0228272 0.302162 0)
(-0.0231797 0.2967 0)
(-0.0235483 0.29077 0)
(-0.0239365 0.284418 0)
(-0.0243473 0.277692 0)
(-0.0247833 0.270641 0)
(-0.0252469 0.263313 0)
(-0.0257398 0.255755 0)
(-0.0262633 0.248005 0)
(-0.0268183 0.240099 0)
(-0.027405 0.232064 0)
(-0.0280234 0.223919 0)
(-0.0286732 0.215672 0)
(-0.0293536 0.207325 0)
(-0.0300639 0.19887 0)
(-0.0308032 0.190292 0)
(-0.0315707 0.181569 0)
(-0.0323657 0.172674 0)
(-0.0331878 0.163577 0)
(-0.0340368 0.154245 0)
(-0.0349128 0.144649 0)
(-0.0358163 0.134757 0)
(-0.0367481 0.124542 0)
(-0.0377091 0.113984 0)
(-0.0387007 0.103063 0)
(-0.0397243 0.0917689 0)
(-0.0407817 0.0800954 0)
(-0.0418743 0.0680423 0)
(4.44723e-06 0.00434128 0)
(2.70516e-05 0.012862 0)
(7.59876e-05 0.0212862 0)
(0.00014762 0.0296086 0)
(0.000238611 0.0378237 0)
(0.000346594 0.0459254 0)
(0.000469208 0.0539075 0)
(0.00060385 0.0617636 0)
(0.000747764 0.0694871 0)
(0.000898082 0.0770717 0)
(0.00105186 0.084511 0)
(0.00120607 0.0917989 0)
(0.00135767 0.0989298 0)
(0.00150358 0.105898 0)
(0.00164073 0.1127 0)
(0.00176612 0.119332 0)
(0.00187682 0.12579 0)
(0.00196998 0.132073 0)
(0.00204294 0.13818 0)
(0.00209319 0.144112 0)
(0.00211843 0.14987 0)
(0.0021166 0.155459 0)
(0.00208591 0.160882 0)
(0.00202487 0.166146 0)
(0.00193231 0.171259 0)
(0.00180738 0.176229 0)
(0.00164959 0.181068 0)
(0.00145881 0.185787 0)
(0.00123527 0.190398 0)
(0.000979544 0.194916 0)
(0.000692586 0.199354 0)
(0.000375671 0.203729 0)
(3.03943e-05 0.208055 0)
(-0.000341353 0.212348 0)
(-0.000737415 0.216623 0)
(-0.00115541 0.220893 0)
(-0.00159276 0.225173 0)
(-0.00204673 0.229475 0)
(-0.00251449 0.233808 0)
(-0.00299313 0.238182 0)
(-0.0034797 0.242603 0)
(-0.0039713 0.247074 0)
(-0.00446504 0.251596 0)
(-0.00495815 0.256167 0)
(-0.00544796 0.260781 0)
(-0.00593196 0.265429 0)
(-0.0064078 0.2701 0)
(-0.00687332 0.274776 0)
(-0.00732657 0.279438 0)
(-0.0077658 0.284065 0)
(-0.00818949 0.288628 0)
(-0.00859637 0.293098 0)
(-0.0089854 0.297444 0)
(-0.00935576 0.301628 0)
(-0.00970692 0.305615 0)
(-0.0100386 0.309365 0)
(-0.0103508 0.312836 0)
(-0.0106437 0.315987 0)
(-0.0109179 0.318776 0)
(-0.0111744 0.321162 0)
(-0.0114142 0.323105 0)
(-0.0116389 0.324566 0)
(-0.0118503 0.325511 0)
(-0.0120506 0.325909 0)
(-0.0122423 0.325732 0)
(-0.0124281 0.324961 0)
(-0.012611 0.32358 0)
(-0.0127944 0.321583 0)
(-0.0129816 0.318967 0)
(-0.0131761 0.315741 0)
(-0.0133816 0.31192 0)
(-0.0136016 0.307527 0)
(-0.0138394 0.302591 0)
(-0.0140981 0.297149 0)
(-0.0143806 0.291242 0)
(-0.0146893 0.284916 0)
(-0.0150263 0.278217 0)
(-0.015393 0.271196 0)
(-0.0157905 0.263898 0)
(-0.0162191 0.256369 0)
(-0.0166788 0.248649 0)
(-0.0171693 0.240772 0)
(-0.0176897 0.232763 0)
(-0.018239 0.224642 0)
(-0.0188159 0.216418 0)
(-0.0194193 0.208092 0)
(-0.0200481 0.199655 0)
(-0.0207015 0.191094 0)
(-0.0213788 0.182387 0)
(-0.0220801 0.173507 0)
(-0.0228057 0.164424 0)
(-0.0235565 0.155107 0)
(-0.0243338 0.145525 0)
(-0.0251395 0.135648 0)
(-0.0259758 0.12545 0)
(-0.0268452 0.114908 0)
(-0.0277507 0.104007 0)
(-0.0286952 0.0927327 0)
(-0.0296819 0.0810808 0)
(-0.0307137 0.0690504 0)
(5.14313e-06 0.00427494 0)
(3.1625e-05 0.0126759 0)
(8.94252e-05 0.0209924 0)
(0.000174707 0.0292197 0)
(0.000284009 0.0373522 0)
(0.000415033 0.0453842 0)
(0.000565491 0.0533094 0)
(0.000732837 0.0611215 0)
(0.000914344 0.0688138 0)
(0.00110717 0.0763799 0)
(0.00130836 0.0838131 0)
(0.0015149 0.0911069 0)
(0.0017237 0.0982553 0)
(0.00193162 0.105253 0)
(0.00213555 0.112094 0)
(0.00233237 0.118774 0)
(0.00251905 0.12529 0)
(0.00269264 0.131639 0)
(0.0028503 0.137819 0)
(0.00298939 0.14383 0)
(0.00310742 0.149673 0)
(0.00320218 0.155349 0)
(0.00327168 0.160863 0)
(0.00331424 0.16622 0)
(0.00332851 0.171426 0)
(0.00331346 0.176489 0)
(0.00326844 0.181418 0)
(0.00319315 0.186224 0)
(0.00308769 0.190918 0)
(0.00295253 0.195515 0)
(0.00278851 0.200026 0)
(0.00259686 0.204468 0)
(0.00237913 0.208853 0)
(0.00213721 0.213198 0)
(0.00187328 0.217517 0)
(0.00158978 0.221823 0)
(0.00128936 0.226131 0)
(0.000974869 0.230452 0)
(0.000649265 0.234796 0)
(0.000315599 0.239174 0)
(-2.3039e-05 0.24359 0)
(-0.000363574 0.24805 0)
(-0.000702993 0.252554 0)
(-0.00103838 0.2571 0)
(-0.00136696 0.261685 0)
(-0.00168615 0.2663 0)
(-0.00199354 0.270932 0)
(-0.002287 0.275567 0)
(-0.00256463 0.280185 0)
(-0.00282482 0.284765 0)
(-0.00306625 0.289281 0)
(-0.00328791 0.293704 0)
(-0.00348909 0.298001 0)
(-0.00366942 0.302138 0)
(-0.00382885 0.306079 0)
(-0.00396767 0.309784 0)
(-0.0040865 0.313212 0)
(-0.00418631 0.316324 0)
(-0.00426844 0.319076 0)
(-0.00433455 0.321429 0)
(-0.00438666 0.323343 0)
(-0.00442713 0.32478 0)
(-0.00445866 0.325705 0)
(-0.00448423 0.326088 0)
(-0.0045071 0.325903 0)
(-0.00453077 0.325128 0)
(-0.00455892 0.323749 0)
(-0.00459534 0.321758 0)
(-0.00464385 0.319154 0)
(-0.00470823 0.315946 0)
(-0.00479213 0.312147 0)
(-0.00489897 0.30778 0)
(-0.00503182 0.302873 0)
(-0.00519337 0.297463 0)
(-0.00538578 0.29159 0)
(-0.00561069 0.285299 0)
(-0.0058691 0.278636 0)
(-0.00616144 0.27165 0)
(-0.0064875 0.264386 0)
(-0.00684653 0.25689 0)
(-0.00723731 0.2492 0)
(-0.0076582 0.241349 0)
(-0.00810735 0.233366 0)
(-0.0085828 0.225266 0)
(-0.00908261 0.217061 0)
(-0.00960509 0.208752 0)
(-0.0101489 0.200331 0)
(-0.0107132 0.191784 0)
(-0.0112977 0.18309 0)
(-0.011903 0.174222 0)
(-0.01253 0.165153 0)
(-0.0131808 0.15585 0)
(-0.0138578 0.146285 0)
(-0.0145642 0.136426 0)
(-0.0153036 0.126249 0)
(-0.0160801 0.115731 0)
(-0.0168981 0.104855 0)
(-0.0177621 0.0936094 0)
(-0.0186765 0.0819882 0)
(-0.0196459 0.0699908 0)
(5.7763e-06 0.00420003 0)
(3.58103e-05 0.0124642 0)
(0.000101758 0.0206562 0)
(0.000199622 0.0287713 0)
(0.000325858 0.0368044 0)
(0.000478252 0.0447499 0)
(0.000654618 0.0526015 0)
(0.000852484 0.0603531 0)
(0.00106919 0.0679981 0)
(0.00130193 0.0755296 0)
(0.0015478 0.0829409 0)
(0.00180378 0.0902254 0)
(0.00206679 0.0973765 0)
(0.00233367 0.104388 0)
(0.00260127 0.111254 0)
(0.00286642 0.117971 0)
(0.00312599 0.124532 0)
(0.00337694 0.130935 0)
(0.00361631 0.137177 0)
(0.00384131 0.143257 0)
(0.00404932 0.149175 0)
(0.00423794 0.154931 0)
(0.00440502 0.160528 0)
(0.00454871 0.165971 0)
(0.00466745 0.171263 0)
(0.00476005 0.176413 0)
(0.00482566 0.181428 0)
(0.00486383 0.186317 0)
(0.0048745 0.191092 0)
(0.00485799 0.195765 0)
(0.00481505 0.200347 0)
(0.00474679 0.204853 0)
(0.00465472 0.209297 0)
(0.00454068 0.213692 0)
(0.00440684 0.218054 0)
(0.00425567 0.222395 0)
(0.00408988 0.226729 0)
(0.00391239 0.231069 0)
(0.00372626 0.235423 0)
(0.00353466 0.239803 0)
(0.00334082 0.244214 0)
(0.00314795 0.248661 0)
(0.0029592 0.253145 0)
(0.00277762 0.257667 0)
(0.0026061 0.262221 0)
(0.00244733 0.2668 0)
(0.00230373 0.271393 0)
(0.00217749 0.275986 0)
(0.00207044 0.28056 0)
(0.0019841 0.285094 0)
(0.00191964 0.289563 0)
(0.00187784 0.293938 0)
(0.00185911 0.29819 0)
(0.00186343 0.302282 0)
(0.00189043 0.306181 0)
(0.00193929 0.309845 0)
(0.0020088 0.313238 0)
(0.00209733 0.316316 0)
(0.00220286 0.31904 0)
(0.00232297 0.32137 0)
(0.00245485 0.323265 0)
(0.00259535 0.324689 0)
(0.00274099 0.325607 0)
(0.00288798 0.325989 0)
(0.00303232 0.325809 0)
(0.00316982 0.325044 0)
(0.00329618 0.323682 0)
(0.00340712 0.321714 0)
(0.00349839 0.319138 0)
(0.00356597 0.315962 0)
(0.0036061 0.312199 0)
(0.00361542 0.307871 0)
(0.00359108 0.303007 0)
(0.00353082 0.297641 0)
(0.00343303 0.291812 0)
(0.00329682 0.285565 0)
(0.00312204 0.278945 0)
(0.00290928 0.271999 0)
(0.00265979 0.264774 0)
(0.00237545 0.257312 0)
(0.00205859 0.249653 0)
(0.00171191 0.24183 0)
(0.00133826 0.23387 0)
(0.000940477 0.22579 0)
(0.000521155 0.217602 0)
(8.249e-05 0.209307 0)
(-0.000373923 0.200898 0)
(-0.000847221 0.192362 0)
(-0.00133739 0.183678 0)
(-0.00184535 0.174822 0)
(-0.00237297 0.165766 0)
(-0.00292302 0.156479 0)
(-0.00349915 0.146931 0)
(-0.00410574 0.137094 0)
(-0.00474782 0.126942 0)
(-0.00543084 0.116453 0)
(-0.00616062 0.105609 0)
(-0.00694309 0.0944002 0)
(-0.00778421 0.0828187 0)
(-0.00868979 0.0708641 0)
(6.34584e-06 0.00411771 0)
(3.95992e-05 0.0122303 0)
(0.00011296 0.0202828 0)
(0.000222309 0.0282708 0)
(0.000364053 0.0361894 0)
(0.000536084 0.0440332 0)
(0.000736336 0.0517962 0)
(0.000962437 0.0594721 0)
(0.00121181 0.0670546 0)
(0.00148172 0.0745366 0)
(0.00176933 0.0819114 0)
(0.00207166 0.089172 0)
(0.00238566 0.0963116 0)
(0.00270819 0.103324 0)
(0.00303607 0.110202 0)
(0.0033661 0.116941 0)
(0.0036951 0.123535 0)
(0.00401996 0.129981 0)
(0.00433762 0.136274 0)
(0.00464518 0.142413 0)
(0.00493989 0.148396 0)
(0.00521919 0.154223 0)
(0.00548078 0.159896 0)
(0.00572261 0.165416 0)
(0.00594298 0.170789 0)
(0.00614047 0.17602 0)
(0.00631409 0.181116 0)
(0.00646319 0.186085 0)
(0.00658753 0.190937 0)
(0.0066873 0.195683 0)
(0.00676309 0.200333 0)
(0.00681592 0.204902 0)
(0.00684717 0.209402 0)
(0.00685865 0.213847 0)
(0.00685249 0.218251 0)
(0.00683113 0.222626 0)
(0.00679733 0.226987 0)
(0.00675403 0.231344 0)
(0.0067044 0.235708 0)
(0.00665169 0.240089 0)
(0.00659924 0.244494 0)
(0.0065504 0.248927 0)
(0.00650845 0.253392 0)
(0.00647656 0.257887 0)
(0.00645775 0.262409 0)
(0.0064548 0.266952 0)
(0.00647022 0.271505 0)
(0.0065062 0.276055 0)
(0.0065646 0.280584 0)
(0.00664686 0.285072 0)
(0.00675402 0.289495 0)
(0.0068867 0.293825 0)
(0.00704503 0.298032 0)
(0.0072287 0.302082 0)
(0.00743693 0.305941 0)
(0.00766844 0.30957 0)
(0.00792149 0.312931 0)
(0.00819386 0.315983 0)
(0.0084829 0.318686 0)
(0.00878548 0.321 0)
(0.00909808 0.322887 0)
(0.0094168 0.324308 0)
(0.00973741 0.32523 0)
(0.0100554 0.325623 0)
(0.010366 0.32546 0)
(0.0106644 0.32472 0)
(0.0109458 0.323388 0)
(0.0112052 0.321455 0)
(0.0114381 0.318921 0)
(0.0116401 0.315791 0)
(0.0118074 0.312078 0)
(0.0119366 0.307802 0)
(0.012025 0.302992 0)
(0.0120706 0.29768 0)
(0.0120724 0.291905 0)
(0.0120301 0.28571 0)
(0.0119443 0.27914 0)
(0.0118165 0.272241 0)
(0.0116487 0.265058 0)
(0.0114441 0.257634 0)
(0.0112058 0.250007 0)
(0.0109376 0.242212 0)
(0.0106432 0.234274 0)
(0.0103262 0.226213 0)
(0.00999007 0.218039 0)
(0.0096373 0.209756 0)
(0.00926983 0.201357 0)
(0.00888856 0.19283 0)
(0.00849335 0.184155 0)
(0.00808286 0.17531 0)
(0.00765463 0.166267 0)
(0.00720503 0.156996 0)
(0.00672943 0.147468 0)
(0.00622228 0.137655 0)
(0.00567731 0.127532 0)
(0.00508769 0.117077 0)
(0.00444625 0.106273 0)
(0.00374563 0.0951071 0)
(0.0029785 0.0835735 0)
(0.00213768 0.0716709 0)
(6.8516e-06 0.00402908 0)
(4.29893e-05 0.0119774 0)
(0.000123022 0.0198774 0)
(0.000242743 0.0277252 0)
(0.000398543 0.035516 0)
(0.000588439 0.0432445 0)
(0.000810502 0.0509052 0)
(0.00106248 0.0584919 0)
(0.00134189 0.065998 0)
(0.00164612 0.0734167 0)
(0.0019724 0.0807412 0)
(0.00231783 0.0879643 0)
(0.00267941 0.095079 0)
(0.00305404 0.102078 0)
(0.00343855 0.108956 0)
(0.00382975 0.115705 0)
(0.00422443 0.12232 0)
(0.00461942 0.128797 0)
(0.00501161 0.13513 0)
(0.00539799 0.141317 0)
(0.00577571 0.147356 0)
(0.00614208 0.153245 0)
(0.00649465 0.158985 0)
(0.00683121 0.164576 0)
(0.00714988 0.170023 0)
(0.00744907 0.17533 0)
(0.00772759 0.180501 0)
(0.00798462 0.185545 0)
(0.00821974 0.19047 0)
(0.00843296 0.195286 0)
(0.00862472 0.200003 0)
(0.0087959 0.204632 0)
(0.00894778 0.209188 0)
(0.00908204 0.213681 0)
(0.00920078 0.218126 0)
(0.00930639 0.222535 0)
(0.00940162 0.226921 0)
(0.00948945 0.231295 0)
(0.00957307 0.235668 0)
(0.00965583 0.240051 0)
(0.00974116 0.244449 0)
(0.00983252 0.248868 0)
(0.00993332 0.253312 0)
(0.0100469 0.257781 0)
(0.0101763 0.262271 0)
(0.0103244 0.266777 0)
(0.010494 0.271289 0)
(0.0106871 0.275796 0)
(0.0109057 0.28028 0)
(0.0111513 0.284722 0)
(0.0114247 0.289099 0)
(0.0117265 0.293384 0)
(0.0120565 0.297548 0)
(0.0124143 0.301558 0)
(0.0127986 0.305381 0)
(0.0132079 0.308978 0)
(0.0136398 0.312312 0)
(0.0140917 0.315343 0)
(0.0145604 0.318031 0)
(0.015042 0.320337 0)
(0.0155323 0.322222 0)
(0.0160269 0.323649 0)
(0.0165207 0.324586 0)
(0.0170086 0.325 0)
(0.017485 0.324865 0)
(0.0179447 0.324161 0)
(0.0183819 0.322871 0)
(0.0187916 0.320987 0)
(0.0191685 0.318507 0)
(0.019508 0.315435 0)
(0.0198062 0.311783 0)
(0.0200595 0.307571 0)
(0.0202653 0.302826 0)
(0.020422 0.297579 0)
(0.0205287 0.291867 0)
(0.0205858 0.285732 0)
(0.0205945 0.279219 0)
(0.020557 0.272372 0)
(0.0204763 0.265235 0)
(0.0203562 0.257852 0)
(0.020201 0.25026 0)
(0.0200152 0.242493 0)
(0.0198034 0.234578 0)
(0.0195701 0.226535 0)
(0.0193192 0.218375 0)
(0.0190538 0.210101 0)
(0.0187761 0.201711 0)
(0.0184872 0.193191 0)
(0.0181868 0.184525 0)
(0.0178732 0.175689 0)
(0.0175435 0.166659 0)
(0.0171933 0.157405 0)
(0.0168171 0.147899 0)
(0.0164083 0.138113 0)
(0.0159595 0.128023 0)
(0.0154626 0.117607 0)
(0.0149091 0.106847 0)
(0.0142902 0.0957323 0)
(0.0135973 0.0842545 0)
(0.0128219 0.0724124 0)
(7.29446e-06 0.0039352 0)
(4.59834e-05 0.0117085 0)
(0.000131945 0.0194451 0)
(0.000260923 0.0271413 0)
(0.000429321 0.0347926 0)
(0.000635294 0.0423942 0)
(0.000877064 0.0499404 0)
(0.00115251 0.0574253 0)
(0.0014593 0.0648426 0)
(0.00179491 0.0721855 0)
(0.00215669 0.0794469 0)
(0.00254185 0.0866198 0)
(0.00294745 0.0936969 0)
(0.00337046 0.100671 0)
(0.00380777 0.107535 0)
(0.00425619 0.114283 0)
(0.00471253 0.120907 0)
(0.0051736 0.127403 0)
(0.00563624 0.133766 0)
(0.00609739 0.139991 0)
(0.00655409 0.146076 0)
(0.00700354 0.152017 0)
(0.00744318 0.157816 0)
(0.00787065 0.163471 0)
(0.00828388 0.168985 0)
(0.00868114 0.17436 0)
(0.00906104 0.179602 0)
(0.00942258 0.184717 0)
(0.00976515 0.189711 0)
(0.0100886 0.194593 0)
(0.0103932 0.199373 0)
(0.0106796 0.204061 0)
(0.010949 0.20867 0)
(0.011203 0.213211 0)
(0.0114435 0.217696 0)
(0.0116729 0.222138 0)
(0.011894 0.226549 0)
(0.0121096 0.23094 0)
(0.012323 0.235323 0)
(0.0125376 0.239707 0)
(0.012757 0.244098 0)
(0.0129845 0.248504 0)
(0.0132239 0.252927 0)
(0.0134785 0.257368 0)
(0.0137515 0.261826 0)
(0.014046 0.266295 0)
(0.0143647 0.270766 0)
(0.0147099 0.275229 0)
(0.0150835 0.279668 0)
(0.015487 0.284064 0)
(0.0159213 0.288395 0)
(0.0163867 0.292636 0)
(0.0168831 0.296759 0)
(0.0174097 0.300731 0)
(0.0179651 0.304519 0)
(0.0185473 0.308087 0)
(0.0191537 0.311397 0)
(0.019781 0.314411 0)
(0.0204255 0.31709 0)
(0.0210829 0.319393 0)
(0.0217483 0.321284 0)
(0.0224166 0.322726 0)
(0.0230822 0.323684 0)
(0.0237391 0.324129 0)
(0.0243814 0.324032 0)
(0.0250029 0.323374 0)
(0.0255975 0.322138 0)
(0.0261595 0.320313 0)
(0.0266832 0.317898 0)
(0.0271638 0.314895 0)
(0.0275969 0.311315 0)
(0.0279789 0.307178 0)
(0.0283073 0.302507 0)
(0.0285804 0.297334 0)
(0.0287977 0.291694 0)
(0.02896 0.285628 0)
(0.0290689 0.279178 0)
(0.0291274 0.272388 0)
(0.029139 0.265303 0)
(0.0291084 0.257964 0)
(0.0290407 0.25041 0)
(0.0289411 0.242673 0)
(0.0288152 0.234782 0)
(0.028668 0.226757 0)
(0.0285041 0.21861 0)
(0.0283272 0.210346 0)
(0.0281397 0.201962 0)
(0.0279429 0.193449 0)
(0.0277365 0.18479 0)
(0.0275186 0.175964 0)
(0.027286 0.166947 0)
(0.0270335 0.157711 0)
(0.026755 0.148228 0)
(0.0264429 0.138472 0)
(0.0260887 0.128419 0)
(0.0256832 0.118046 0)
(0.0252166 0.107337 0)
(0.0246789 0.0962783 0)
(0.0240601 0.0848634 0)
(0.0233504 0.0730898 0)
(7.67581e-06 0.00383709 0)
(4.85879e-05 0.0114266 0)
(0.000139746 0.0189906 0)
(0.000276876 0.0265257 0)
(0.00045642 0.0340276 0)
(0.000676685 0.0414918 0)
(0.000936056 0.0489129 0)
(0.00123257 0.0562853 0)
(0.00156402 0.0636025 0)
(0.00192804 0.070858 0)
(0.0023221 0.0780448 0)
(0.00274352 0.0851557 0)
(0.00318949 0.0921833 0)
(0.00365705 0.0991203 0)
(0.00414316 0.105959 0)
(0.0046447 0.112694 0)
(0.00515849 0.119316 0)
(0.00568135 0.125821 0)
(0.00621012 0.132202 0)
(0.00674168 0.138455 0)
(0.00727302 0.144576 0)
(0.00780126 0.150561 0)
(0.0083237 0.156409 0)
(0.00883788 0.16212 0)
(0.00934158 0.167693 0)
(0.00983289 0.173132 0)
(0.0103103 0.178438 0)
(0.0107725 0.183618 0)
(0.0112188 0.188677 0)
(0.0116488 0.193622 0)
(0.0120627 0.198462 0)
(0.0124609 0.203207 0)
(0.0128444 0.207868 0)
(0.0132147 0.212454 0)
(0.0135736 0.216979 0)
(0.0139235 0.221453 0)
(0.0142669 0.225889 0)
(0.0146067 0.230298 0)
(0.0149463 0.23469 0)
(0.015289 0.239075 0)
(0.0156384 0.24346 0)
(0.0159981 0.247852 0)
(0.0163717 0.252255 0)
(0.0167628 0.256669 0)
(0.0171748 0.261094 0)
(0.0176108 0.265526 0)
(0.0180736 0.269957 0)
(0.0185657 0.274376 0)
(0.019089 0.278769 0)
(0.0196451 0.283119 0)
(0.0202349 0.287405 0)
(0.0208586 0.291602 0)
(0.0215161 0.295683 0)
(0.0222064 0.299618 0)
(0.0229279 0.303374 0)
(0.0236782 0.306915 0)
(0.0244545 0.310204 0)
(0.0252531 0.313205 0)
(0.0260699 0.315878 0)
(0.0268999 0.318184 0)
(0.0277379 0.320086 0)
(0.028578 0.321548 0)
(0.0294141 0.322536 0)
(0.0302395 0.323018 0)
(0.0310478 0.322969 0)
(0.031832 0.322365 0)
(0.0325857 0.321191 0)
(0.0333024 0.319436 0)
(0.0339761 0.317095 0)
(0.0346015 0.314171 0)
(0.0351739 0.310674 0)
(0.0356896 0.306621 0)
(0.0361459 0.302034 0)
(0.0365411 0.296943 0)
(0.036875 0.291384 0)
(0.0371485 0.285393 0)
(0.0373636 0.279014 0)
(0.0375237 0.272288 0)
(0.0376332 0.265259 0)
(0.0376971 0.257969 0)
(0.0377213 0.250455 0)
(0.0377119 0.242751 0)
(0.0376749 0.234886 0)
(0.0376162 0.226879 0)
(0.0375409 0.218745 0)
(0.0374532 0.210491 0)
(0.037356 0.202115 0)
(0.0372507 0.193608 0)
(0.0371372 0.184956 0)
(0.0370135 0.17614 0)
(0.036876 0.167136 0)
(0.0367191 0.157919 0)
(0.0365361 0.148461 0)
(0.0363185 0.138738 0)
(0.0360569 0.128724 0)
(0.035741 0.118398 0)
(0.0353598 0.107744 0)
(0.0349023 0.0967481 0)
(0.034357 0.0854027 0)
(0.0337129 0.0737047 0)
(7.9974e-06 0.00373568 0)
(5.08124e-05 0.0111345 0)
(0.000146451 0.0185184 0)
(0.000290646 0.0258844 0)
(0.000479907 0.0332287 0)
(0.0007127 0.0405468 0)
(0.000987582 0.0478336 0)
(0.00130275 0.0550837 0)