/*--------------------------------*- C++ -*----------------------------------*\
| =========                 |                                                 |
| \\      /  F ield         | OpenFOAM: The Open Source CFD Toolbox           |
|  \\    /   O peration     | Version:  2406                                  |
|   \\  /    A nd           | Website:  www.openfoam.com                      |
|    \\/     M anipulation  |                                                 |
\*---------------------------------------------------------------------------*/
FoamFile
{
    version     2.0;
    format      ascii;
    arch        "LSB;label=32;scalar=64";
    class       volScalarField;
    location    "10";
    object      p;
}
// * * * * * * * * * * * * * * * * * * * * * * * * * * * * * * * * * * * * * //

dimensions      [0 2 -2 0 0 0 0];

internalField   nonuniform List<scalar> 
40000
(
1.1322e-07
-6.31933e-06
-1.26553e-05
-1.87455e-05
-2.49879e-05
-3.14954e-05
-3.82796e-05
-4.53688e-05
-5.28102e-05
-6.06586e-05
-6.89739e-05
-7.78215e-05
-8.72728e-05
-9.74049e-05
-0.000108301
-0.000120049
-0.000132743
-0.000146484
-0.000161376
-0.000177529
-0.000195057
-0.000214082
-0.000234728
-0.000257127
-0.000281412
-0.000307726
-0.000336214
-0.000367029
-0.000400331
-0.000436286
-0.000475067
-0.000516858
-0.000561852
-0.000610253
-0.000662279
-0.000718161
-0.00077815
-0.000842514
-0.000911544
-0.00098556
-0.00106491
-0.00114997
-0.00124118
-0.00133899
-0.00144393
-0.0015566
-0.00167764
-0.0018078
-0.00194791
-0.00209892
-0.00226189
-0.00243805
-0.00262876
-0.00283561
-0.00306037
-0.00330507
-0.003572
-0.00386377
-0.00418332
-0.00453397
-0.00491942
-0.00534384
-0.00581184
-0.00632851
-0.0068994
-0.00753054
-0.00822838
-0.00899975
-0.00985172
-0.0107915
-0.0118264
-0.0129633
-0.0142087
-0.0155683
-0.0170467
-0.0186472
-0.0203713
-0.0222185
-0.024186
-0.0262687
-0.0284589
-0.0307465
-0.0331193
-0.035563
-0.0380622
-0.0406002
-0.0431604
-0.0457262
-0.0482821
-0.0508138
-0.0533085
-0.0557553
-0.0581449
-0.0604691
-0.0627212
-0.0648946
-0.0669829
-0.0689788
-0.0708743
-0.0726594
-0.000433336
-0.000438534
-0.00044372
-0.000448796
-0.000454091
-0.000459702
-0.000465646
-0.000471958
-0.000478687
-0.000485889
-0.000493629
-0.000501974
-0.000510998
-0.000520782
-0.000531412
-0.000542981
-0.000555585
-0.000569329
-0.000584321
-0.000600674
-0.000618509
-0.000637949
-0.000659125
-0.000682171
-0.000707228
-0.000734442
-0.000763964
-0.000795952
-0.000830572
-0.000867997
-0.000908405
-0.000951988
-0.000998946
-0.00104949
-0.00110385
-0.00116226
-0.00122498
-0.00129229
-0.0013645
-0.00144194
-0.00152496
-0.00161396
-0.00170939
-0.00181172
-0.00192152
-0.00203937
-0.00216597
-0.00230208
-0.00244856
-0.0026064
-0.0027767
-0.00296071
-0.00315987
-0.00337578
-0.00361029
-0.00386548
-0.00414372
-0.00444768
-0.00478037
-0.0051452
-0.00554597
-0.00598691
-0.00647274
-0.00700863
-0.00760022
-0.00825362
-0.00897534
-0.00977223
-0.0106514
-0.0116201
-0.0126854
-0.0138542
-0.0151329
-0.0165269
-0.0180406
-0.0196769
-0.021437
-0.0233198
-0.0253224
-0.027439
-0.0296616
-0.0319798
-0.0343812
-0.0368513
-0.0393747
-0.041935
-0.0445156
-0.0471007
-0.0496751
-0.0522251
-0.0547387
-0.0572055
-0.0596167
-0.0619648
-0.0642433
-0.0664457
-0.0685656
-0.0705957
-0.0725272
-0.0743497
-0.000856834
-0.000860787
-0.000864826
-0.000868892
-0.000873238
-0.000877946
-0.000883041
-0.000888561
-0.00089456
-0.000901096
-0.000908235
-0.000916047
-0.000924611
-0.000934009
-0.00094433
-0.00095567
-0.000968131
-0.000981817
-0.000996842
-0.00101332
-0.00103138
-0.00105115
-0.00107276
-0.00109635
-0.00112207
-0.00115006
-0.00118049
-0.00121351
-0.0012493
-0.00128804
-0.0013299
-0.00137509
-0.00142382
-0.0014763
-0.00153277
-0.00159347
-0.00165867
-0.00172866
-0.00180376
-0.00188431
-0.00197067
-0.00206326
-0.00216253
-0.00226898
-0.00238318
-0.00250576
-0.0026374
-0.00277891
-0.00293117
-0.00309519
-0.0032721
-0.0034632
-0.00366994
-0.00389399
-0.00413722
-0.00440178
-0.00469006
-0.00500481
-0.00534911
-0.00572641
-0.00614057
-0.00659592
-0.00709722
-0.00764971
-0.00825908
-0.0089315
-0.00967351
-0.010492
-0.011394
-0.0123868
-0.0134775
-0.0146727
-0.0159787
-0.0174008
-0.0189431
-0.0206083
-0.0223972
-0.0243086
-0.026339
-0.0284825
-0.0307307
-0.0330732
-0.0354971
-0.0379883
-0.0405313
-0.0431098
-0.0457077
-0.0483095
-0.0509005
-0.0534676
-0.0559993
-0.0584856
-0.0609182
-0.06329
-0.0655946
-0.0678257
-0.0699767
-0.0720399
-0.0740063
-0.0758647
-0.00126915
-0.00127187
-0.00127478
-0.00127784
-0.00128125
-0.00128506
-0.0012893
-0.00129403
-0.00129929
-0.00130514
-0.00131166
-0.00131892
-0.00132699
-0.00133597
-0.00134594
-0.00135701
-0.00136927
-0.00138284
-0.00139783
-0.00141436
-0.00143257
-0.00145257
-0.00147452
-0.00149854
-0.0015248
-0.00155344
-0.00158463
-0.00161854
-0.00165533
-0.0016952
-0.00173833
-0.00178493
-0.00183521
-0.0018894
-0.00194773
-0.00201046
-0.00207786
-0.00215024
-0.00222791
-0.00231122
-0.00240056
-0.00249634
-0.00259904
-0.00270917
-0.0028273
-0.00295407
-0.00309021
-0.00323652
-0.00339391
-0.0035634
-0.00374616
-0.00394351
-0.00415693
-0.00438811
-0.00463897
-0.00491168
-0.00520869
-0.00553277
-0.00588705
-0.00627503
-0.00670062
-0.00716817
-0.00768251
-0.0082489
-0.00887308
-0.00956123
-0.0103199
-0.011156
-0.0120766
-0.0130888
-0.0141997
-0.0154159
-0.0167434
-0.0181875
-0.0197521
-0.0214396
-0.0232506
-0.0251838
-0.0272353
-0.0293991
-0.0316667
-0.0340275
-0.0364687
-0.0389762
-0.0415344
-0.0441277
-0.04674
-0.0493562
-0.0519622
-0.054545
-0.0570938
-0.0595989
-0.0620523
-0.0644472
-0.0667771
-0.0690359
-0.0712166
-0.0733114
-0.0753107
-0.0772029
-0.00166928
-0.0016708
-0.0016726
-0.00167468
-0.00167716
-0.00168007
-0.00168347
-0.0016874
-0.00169192
-0.00169709
-0.00170297
-0.00170965
-0.00171721
-0.00172574
-0.00173532
-0.00174606
-0.00175807
-0.00177146
-0.00178635
-0.00180286
-0.00182112
-0.00184126
-0.00186343
-0.00188778
-0.00191444
-0.0019436
-0.0019754
-0.00201003
-0.00204765
-0.00208847
-0.00213267
-0.00218046
-0.00223206
-0.0022877
-0.00234763
-0.0024121
-0.0024814
-0.00255584
-0.00263574
-0.00272145
-0.00281338
-0.00291194
-0.00301762
-0.00313094
-0.00325249
-0.00338291
-0.00352294
-0.00367341
-0.00383523
-0.00400946
-0.00419726
-0.00439997
-0.00461911
-0.00485639
-0.00511374
-0.00539335
-0.00569771
-0.00602962
-0.00639222
-0.00678904
-0.00722403
-0.00770156
-0.00822647
-0.00880406
-0.00944006
-0.0101407
-0.0109124
-0.0117622
-0.0126971
-0.0137241
-0.0148503
-0.0160821
-0.0174256
-0.0188858
-0.0204665
-0.0221701
-0.0239969
-0.0259454
-0.0280118
-0.0301899
-0.0324711
-0.0348448
-0.0372984
-0.0398177
-0.0423875
-0.0449923
-0.0476163
-0.0502448
-0.0528639
-0.0554613
-0.058026
-0.0605489
-0.0630222
-0.065439
-0.067793
-0.0700779
-0.0722865
-0.0744106
-0.0764403
-0.0783635
-0.00205638
-0.00205673
-0.00205745
-0.00205858
-0.00206014
-0.00206219
-0.00206475
-0.00206789
-0.00207167
-0.00207614
-0.00208138
-0.00208747
-0.00209449
-0.00210253
-0.00211169
-0.00212207
-0.00213378
-0.00214693
-0.00216164
-0.00217805
-0.00219627
-0.00221646
-0.00223874
-0.00226328
-0.00229023
-0.00231976
-0.00235201
-0.00238719
-0.00242546
-0.00246702
-0.00251207
-0.00256083
-0.0026135
-0.00267034
-0.00273158
-0.0027975
-0.00286838
-0.00294453
-0.00302629
-0.00311402
-0.00320812
-0.00330902
-0.0034172
-0.00353321
-0.00365763
-0.00379112
-0.00393443
-0.00408839
-0.00425393
-0.0044321
-0.00462411
-0.00483128
-0.00505515
-0.00529744
-0.00556011
-0.00584535
-0.00615567
-0.00649387
-0.00686311
-0.00726694
-0.0077093
-0.00819458
-0.00872761
-0.0093137
-0.00995857
-0.0106684
-0.0114497
-0.0123094
-0.0132544
-0.0142917
-0.0154284
-0.0166708
-0.0180249
-0.0194956
-0.0210867
-0.0228003
-0.024637
-0.0265949
-0.0286703
-0.030857
-0.0331465
-0.0355281
-0.0379895
-0.0405165
-0.0430944
-0.0457076
-0.0483408
-0.0509795
-0.0536101
-0.0562204
-0.0587998
-0.0613393
-0.0638312
-0.0662685
-0.0686448
-0.0709538
-0.073188
-0.0753388
-0.077396
-0.0793469
-0.0024298
-0.00242902
-0.0024287
-0.0024289
-0.00242958
-0.00243077
-0.00243252
-0.00243488
-0.00243792
-0.0024417
-0.00244629
-0.00245177
-0.00245824
-0.00246577
-0.00247447
-0.00248444
-0.00249579
-0.00250864
-0.00252311
-0.00253933
-0.00255744
-0.00257756
-0.00259985
-0.00262447
-0.00265156
-0.0026813
-0.00271386
-0.0027494
-0.00278813
-0.00283023
-0.00287591
-0.00292539
-0.00297888
-0.00303664
-0.0030989
-0.00316595
-0.00323808
-0.00331559
-0.00339883
-0.00348817
-0.003584
-0.00368677
-0.00379697
-0.00391514
-0.00404187
-0.00417784
-0.00432378
-0.00448054
-0.00464905
-0.00483038
-0.00502572
-0.00523643
-0.00546403
-0.00571025
-0.00597705
-0.00626664
-0.0065815
-0.00692446
-0.00729867
-0.00770767
-0.00815539
-0.00864622
-0.00918498
-0.00977693
-0.0104278
-0.0111437
-0.0119312
-0.012797
-0.0137481
-0.0147915
-0.0159341
-0.0171823
-0.0185418
-0.0200178
-0.0216137
-0.0233319
-0.0251727
-0.0271344
-0.0292134
-0.0314033
-0.033696
-0.0360809
-0.0385458
-0.0410768
-0.0436593
-0.046278
-0.048918
-0.0515648
-0.054205
-0.0568267
-0.0594194
-0.061974
-0.0644828
-0.0669388
-0.0693356
-0.0716663
-0.0739235
-0.0760981
-0.0781796
-0.0801549
-0.00278901
-0.00278716
-0.00278584
-0.00278514
-0.00278497
-0.00278533
-0.00278628
-0.00278788
-0.0027902
-0.00279329
-0.00279723
-0.0028021
-0.002808
-0.002815
-0.00282321
-0.00283273
-0.00284368
-0.00285618
-0.00287034
-0.0028863
-0.00290419
-0.00292415
-0.00294634
-0.0029709
-0.002998
-0.00302781
-0.00306049
-0.00309623
-0.00313521
-0.00317764
-0.00322373
-0.00327368
-0.00332773
-0.00338612
-0.0034491
-0.00351696
-0.00358998
-0.00366849
-0.00375282
-0.00384334
-0.00394047
-0.00404464
-0.00415635
-0.00427614
-0.00440461
-0.00454243
-0.00469034
-0.0048492
-0.00501994
-0.00520362
-0.00540143
-0.00561474
-0.00584506
-0.00609412
-0.00636387
-0.00665652
-0.00697454
-0.00732075
-0.00769828
-0.00811065
-0.00856177
-0.00905601
-0.00959814
-0.0101934
-0.0108475
-0.0115665
-0.0123568
-0.0132252
-0.0141787
-0.0152241
-0.0163682
-0.0176175
-0.0189778
-0.0204539
-0.0220495
-0.023767
-0.0256066
-0.0275669
-0.0296442
-0.0318326
-0.0341237
-0.0365075
-0.0389718
-0.0415031
-0.044087
-0.0467084
-0.0493526
-0.0520054
-0.0546534
-0.0572848
-0.059889
-0.0624571
-0.0649811
-0.0674539
-0.0698688
-0.0722189
-0.0744962
-0.0766916
-0.078794
-0.08079
-0.00313365
-0.00313078
-0.00312851
-0.00312697
-0.00312598
-0.00312554
-0.00312573
-0.00312659
-0.0031282
-0.00313061
-0.0031339
-0.00313816
-0.00314347
-0.00314992
-0.00315761
-0.00316666
-0.00317716
-0.00318924
-0.00320303
-0.00321865
-0.00323624
-0.00325595
-0.00327792
-0.0033023
-0.00332927
-0.00335899
-0.00339163
-0.00342738
-0.00346643
-0.00350897
-0.00355522
-0.0036054
-0.00365974
-0.00371847
-0.00378187
-0.0038502
-0.00392377
-0.00400289
-0.00408791
-0.0041792
-0.00427716
-0.00438225
-0.00449496
-0.00461582
-0.00474545
-0.0048845
-0.00503373
-0.00519398
-0.00536619
-0.0055514
-0.00575082
-0.0059658
-0.00619783
-0.00644865
-0.0067202
-0.00701464
-0.00733447
-0.00768244
-0.00806168
-0.00847568
-0.00892831
-0.00942388
-0.00996715
-0.0105633
-0.0112179
-0.0119371
-0.0127272
-0.0135949
-0.0145471
-0.0155906
-0.0167322
-0.0179783
-0.0193347
-0.0208063
-0.0223969
-0.0241086
-0.0259422
-0.0278961
-0.0299669
-0.0321489
-0.0344341
-0.0368125
-0.0392724
-0.0418005
-0.0443825
-0.0470039
-0.0496499
-0.0523064
-0.0549602
-0.0575994
-0.0602134
-0.0627931
-0.0653304
-0.0678179
-0.0702487
-0.0726155
-0.0749101
-0.0771231
-0.0792431
-0.0812565
-0.00346352
-0.00345969
-0.00345653
-0.00345417
-0.00345241
-0.00345122
-0.00345066
-0.00345081
-0.00345173
-0.00345348
-0.00345613
-0.00345977
-0.00346449
-0.00347038
-0.00347753
-0.00348606
-0.00349607
-0.00350769
-0.00352104
-0.00353625
-0.00355346
-0.00357281
-0.00359445
-0.00361854
-0.00364524
-0.00367472
-0.00370716
-0.00374274
-0.00378165
-0.00382409
-0.00387028
-0.00392043
-0.00397478
-0.00403357
-0.00409706
-0.00416554
-0.0042393
-0.00431866
-0.00440396
-0.00449558
-0.00459393
-0.00469945
-0.00481263
-0.00493402
-0.00506422
-0.00520388
-0.00535377
-0.0055147
-0.00568762
-0.00587358
-0.00607375
-0.00628946
-0.00652223
-0.00677376
-0.00704595
-0.00734097
-0.00766127
-0.00800958
-0.00838898
-0.00880292
-0.00925524
-0.00975019
-0.0102924
-0.0108871
-0.0115398
-0.0122565
-0.0130434
-0.0139072
-0.0148547
-0.0158928
-0.0170281
-0.018267
-0.0196153
-0.021078
-0.0226589
-0.0243604
-0.0261832
-0.0281261
-0.0301859
-0.032357
-0.034632
-0.0370011
-0.0394528
-0.0419742
-0.0445514
-0.0471698
-0.0498151
-0.052473
-0.0551305
-0.0577756
-0.0603976
-0.062987
-0.0655355
-0.0680356
-0.0704799
-0.0728608
-0.0751699
-0.0773974
-0.0795318
-0.0815591
-0.00377851
-0.00377379
-0.00376979
-0.00376668
-0.00376419
-0.00376227
-0.00376102
-0.00376048
-0.00376074
-0.00376184
-0.00376386
-0.0037669
-0.00377102
-0.00377633
-0.00378293
-0.00379091
-0.0038004
-0.00381151
-0.00382436
-0.00383909
-0.00385584
-0.00387474
-0.00389595
-0.00391962
-0.00394592
-0.00397501
-0.00400708
-0.0040423
-0.00408088
-0.004123
-0.00416889
-0.00421876
-0.00427286
-0.00433141
-0.0043947
-0.00446298
-0.00453658
-0.00461579
-0.00470097
-0.00479249
-0.00489077
-0.00499623
-0.00510938
-0.00523074
-0.00536093
-0.00550059
-0.00565048
-0.0058114
-0.00598429
-0.00617019
-0.00637027
-0.00658583
-0.00681837
-0.00706957
-0.00734131
-0.00763572
-0.00795522
-0.00830249
-0.00868058
-0.00909287
-0.00954315
-0.0100356
-0.0105748
-0.0111659
-0.0118143
-0.0125259
-0.0133069
-0.0141639
-0.0151037
-0.0161329
-0.0172583
-0.0184863
-0.0198226
-0.0212723
-0.0228394
-0.0245263
-0.026334
-0.0282615
-0.030306
-0.0324622
-0.0347228
-0.0370787
-0.0395186
-0.04203
-0.0445992
-0.0472119
-0.0498538
-0.0525109
-0.05517
-0.0578189
-0.0604467
-0.0630439
-0.0656017
-0.0681121
-0.0705675
-0.0729601
-0.075281
-0.0775201
-0.0796657
-0.0817037
-0.00407865
-0.00407311
-0.00406834
-0.00406453
-0.00406135
-0.00405876
-0.00405684
-0.00405566
-0.00405527
-0.00405575
-0.00405716
-0.0040596
-0.00406313
-0.00406786
-0.00407388
-0.0040813
-0.00409023
-0.00410078
-0.00411309
-0.00412727
-0.00414348
-0.00416184
-0.00418251
-0.00420565
-0.00423141
-0.00425997
-0.00429151
-0.0043262
-0.00436425
-0.00440584
-0.0044512
-0.00450055
-0.00455412
-0.00461215
-0.00467491
-0.00474268
-0.00481575
-0.00489444
-0.0049791
-0.0050701
-0.00516784
-0.00527277
-0.00538536
-0.00550617
-0.00563577
-0.00577482
-0.00592405
-0.00608428
-0.00625642
-0.0064415
-0.00664065
-0.00685519
-0.00708658
-0.00733645
-0.00760668
-0.00789935
-0.00821683
-0.00856176
-0.00893714
-0.00934628
-0.00979289
-0.0102811
-0.0108154
-0.0114009
-0.0120428
-0.012747
-0.0135196
-0.0143671
-0.0152961
-0.0163135
-0.0174257
-0.0186393
-0.01996
-0.021393
-0.0229424
-0.0246107
-0.0263993
-0.0283074
-0.0303325
-0.0324697
-0.0347122
-0.0370511
-0.0394757
-0.0419738
-0.0445319
-0.047136
-0.0497719
-0.0524257
-0.0550841
-0.0577347
-0.0603665
-0.0629694
-0.0655343
-0.068053
-0.0705173
-0.0729191
-0.0752491
-0.0774972
-0.0796511
-0.0816968
-0.00436408
-0.00435778
-0.0043523
-0.00434785
-0.00434403
-0.00434082
-0.00433828
-0.00433649
-0.00433549
-0.00433537
-0.00433619
-0.00433803
-0.00434098
-0.00434512
-0.00435056
-0.00435739
-0.00436573
-0.0043757
-0.0043874
-0.00440099
-0.00441657
-0.00443431
-0.00445435
-0.00447684
-0.00450195
-0.00452984
-0.00456068
-0.00459467
-0.004632
-0.00467286
-0.00471747
-0.00476604
-0.00481882
-0.00487604
-0.00493797
-0.00500489
-0.00507709
-0.00515489
-0.00523863
-0.00532868
-0.00542544
-0.00552936
-0.0056409
-0.00576061
-0.00588906
-0.00602691
-0.00617486
-0.00633373
-0.00650441
-0.00668791
-0.00688536
-0.00709803
-0.00732736
-0.00757496
-0.00784266
-0.00813251
-0.00844682
-0.00878819
-0.00915953
-0.00956411
-0.0100056
-0.0104879
-0.0110156
-0.0115935
-0.0122269
-0.0129216
-0.0136834
-0.014519
-0.0154347
-0.0164374
-0.0175335
-0.0187296
-0.0200314
-0.0214442
-0.0229723
-0.0246184
-0.0263841
-0.028269
-0.0302709
-0.0323854
-0.034606
-0.0369244
-0.0393303
-0.0418117
-0.0443556
-0.0469483
-0.0495756
-0.0522236
-0.054879
-0.0575292
-0.0601627
-0.0627693
-0.0653393
-0.0678642
-0.0703353
-0.0727439
-0.0750808
-0.0773352
-0.079495
-0.0815457
-0.00463502
-0.00462804
-0.00462192
-0.00461687
-0.00461248
-0.00460869
-0.00460557
-0.0046032
-0.00460164
-0.00460095
-0.0046012
-0.00460247
-0.00460484
-0.0046084
-0.00461324
-0.00461948
-0.0046272
-0.00463654
-0.0046476
-0.00466052
-0.00467543
-0.00469247
-0.00471178
-0.00473352
-0.00475784
-0.00478492
-0.00481493
-0.00484805
-0.00488447
-0.00492439
-0.00496802
-0.00501559
-0.00506732
-0.00512345
-0.00518425
-0.00525
-0.00532099
-0.00539752
-0.00547995
-0.00556864
-0.00566399
-0.00576643
-0.00587643
-0.00599452
-0.00612127
-0.00625732
-0.00640339
-0.00656024
-0.00672878
-0.00690998
-0.00710496
-0.00731496
-0.00754139
-0.00778582
-0.00805003
-0.00833604
-0.0086461
-0.00898275
-0.00934885
-0.00974758
-0.0101824
-0.0106574
-0.0111769
-0.0117456
-0.0123687
-0.0130518
-0.0138009
-0.0146222
-0.0155222
-0.0165077
-0.017585
-0.0187607
-0.0200407
-0.0214302
-0.0229337
-0.0245542
-0.0262936
-0.0281518
-0.0301269
-0.0322151
-0.0344104
-0.0367048
-0.0390885
-0.0415501
-0.0440769
-0.0466552
-0.0492712
-0.0519109
-0.0545608
-0.0572083
-0.0598415
-0.0624496
-0.0650228
-0.0675518
-0.0700276
-0.0724411
-0.0747826
-0.0770412
-0.0792044
-0.0812579
-0.00489176
-0.00488418
-0.00487749
-0.00487191
-0.004867
-0.00486268
-0.00485903
-0.00485613
-0.00485404
-0.00485281
-0.00485251
-0.00485322
-0.00485503
-0.00485801
-0.00486226
-0.00486788
-0.00487498
-0.00488365
-0.00489404
-0.00490624
-0.00492041
-0.00493667
-0.00495517
-0.00497605
-0.00499948
-0.00502562
-0.00505464
-0.00508673
-0.00512207
-0.00516086
-0.0052033
-0.00524962
-0.00530005
-0.00535483
-0.00541421
-0.00547847
-0.00554791
-0.00562282
-0.00570356
-0.00579049
-0.00588399
-0.00598449
-0.00609247
-0.00620844
-0.00633296
-0.00646666
-0.00661023
-0.00676446
-0.00693019
-0.00710841
-0.00730019
-0.00750674
-0.00772945
-0.00796985
-0.00822968
-0.0085109
-0.0088157
-0.00914656
-0.00950626
-0.00989789
-0.0103249
-0.0107912
-0.011301
-0.0118589
-0.0124701
-0.0131399
-0.0138743
-0.0146794
-0.0155616
-0.0165276
-0.0175838
-0.0187365
-0.019992
-0.0213554
-0.0228313
-0.0244232
-0.0261331
-0.0279613
-0.0299064
-0.031965
-0.0341315
-0.0363987
-0.0387571
-0.0411957
-0.0437021
-0.0462632
-0.0488651
-0.0514939
-0.054136
-0.0567784
-0.0594091
-0.0620168
-0.0645911
-0.0671223
-0.0696009
-0.0720174
-0.0743616
-0.0766223
-0.0787869
-0.080841
-0.00513469
-0.00512658
-0.00511938
-0.00511334
-0.00510796
-0.00510316
-0.00509903
-0.00509565
-0.00509306
-0.00509133
-0.00509051
-0.0050907
-0.00509195
-0.00509436
-0.00509802
-0.00510302
-0.00510947
-0.00511747
-0.00512713
-0.00513858
-0.00515195
-0.00516736
-0.00518496
-0.0052049
-0.00522732
-0.0052524
-0.0052803
-0.0053112
-0.00534529
-0.00538275
-0.0054238
-0.00546865
-0.00551753
-0.00557069
-0.00562836
-0.00569084
-0.00575839
-0.00583135
-0.00591003
-0.00599479
-0.00608603
-0.00618416
-0.00628965
-0.00640301
-0.00652478
-0.00665558
-0.0067961
-0.00694709
-0.0071094
-0.00728396
-0.00747185
-0.00767423
-0.00789246
-0.00812803
-0.00838263
-0.00865816
-0.00895677
-0.00928086
-0.00963313
-0.0100166
-0.0104346
-0.010891
-0.0113898
-0.0119355
-0.0125332
-0.0131883
-0.0139063
-0.0146934
-0.015556
-0.0165005
-0.0175333
-0.018661
-0.0198895
-0.0212243
-0.0226701
-0.0242306
-0.0259081
-0.0277034
-0.0296154
-0.0316412
-0.0337759
-0.0360126
-0.0383425
-0.040755
-0.0432381
-0.045779
-0.048364
-0.0509792
-0.053611
-0.0562461
-0.0588721
-0.0614773
-0.0640508
-0.0665824
-0.069062
-0.0714796
-0.0738247
-0.0760859
-0.0782502
-0.0803032
-0.00536423
-0.00535567
-0.00534804
-0.00534159
-0.00533579
-0.00533057
-0.00532602
-0.00532219
-0.00531915
-0.00531695
-0.00531565
-0.00531533
-0.00531605
-0.00531791
-0.00532098
-0.00532536
-0.00533114
-0.00533844
-0.00534735
-0.00535801
-0.00537052
-0.00538502
-0.00540166
-0.00542056
-0.00544188
-0.00546578
-0.00549242
-0.00552199
-0.00555465
-0.00559061
-0.00563007
-0.00567324
-0.00572034
-0.00577161
-0.00582731
-0.0058877
-0.00595306
-0.00602371
-0.00609997
-0.0061822
-0.00627077
-0.00636611
-0.00646866
-0.00657893
-0.00669745
-0.00682484
-0.00696176
-0.00710894
-0.00726722
-0.00743751
-0.00762084
-0.00781837
-0.0080314
-0.00826139
-0.00850997
-0.008779
-0.00907055
-0.00938697
-0.00973086
-0.0101052
-0.0105131
-0.0109584
-0.0114451
-0.0119775
-0.0125605
-0.0131993
-0.0138996
-0.0146672
-0.0155084
-0.0164297
-0.0174374
-0.018538
-0.0197374
-0.0210414
-0.0224548
-0.0239815
-0.0256241
-0.0273837
-0.0292598
-0.03125
-0.0333499
-0.0355531
-0.0378515
-0.0402348
-0.0426918
-0.0452096
-0.0477749
-0.0503738
-0.0529927
-0.0556181
-0.0582372
-0.0608378
-0.0634085
-0.0659386
-0.0684175
-0.0708348
-0.0731793
-0.0754394
-0.077602
-0.0796524
-0.00558086
-0.00557192
-0.00556393
-0.00555713
-0.00555098
-0.0055454
-0.00554046
-0.00553625
-0.00553279
-0.00553016
-0.00552841
-0.00552761
-0.00552782
-0.00552914
-0.00553163
-0.00553539
-0.0055405
-0.00554708
-0.00555523
-0.00556505
-0.00557666
-0.0055902
-0.00560579
-0.00562357
-0.00564369
-0.0056663
-0.00569157
-0.00571966
-0.00575075
-0.00578503
-0.0058227
-0.00586398
-0.00590907
-0.00595822
-0.00601167
-0.00606969
-0.00613256
-0.00620058
-0.00627408
-0.0063534
-0.00643892
-0.00653105
-0.00663023
-0.00673696
-0.00685176
-0.00697523
-0.00710803
-0.00725086
-0.00740453
-0.00756995
-0.00774812
-0.00794015
-0.00814731
-0.00837102
-0.00861286
-0.00887463
-0.00915834
-0.00946626
-0.00980092
-0.0101652
-0.0105622
-0.0109955
-0.0114689
-0.0119869
-0.0125541
-0.0131755
-0.0138567
-0.0146035
-0.0154221
-0.0163186
-0.0172996
-0.0183714
-0.0195401
-0.0208114
-0.0221904
-0.023681
-0.0252864
-0.0270079
-0.0288456
-0.0307976
-0.0328599
-0.0350269
-0.0372908
-0.0396421
-0.0420699
-0.0445617
-0.0471045
-0.0496845
-0.0522879
-0.0549012
-0.057511
-0.060105
-0.0626711
-0.065198
-0.0676747
-0.07009
-0.0724326
-0.0746903
-0.0768499
-0.0788966
-0.00578509
-0.00577585
-0.00576756
-0.00576048
-0.00575404
-0.00574814
-0.00574288
-0.00573832
-0.0057345
-0.00573148
-0.00572931
-0.00572806
-0.00572779
-0.00572858
-0.00573051
-0.00573365
-0.0057381
-0.00574394
-0.00575129
-0.00576025
-0.00577093
-0.00578345
-0.00579793
-0.00581452
-0.00583335
-0.00585457
-0.00587833
-0.00590481
-0.00593418
-0.00596662
-0.00600233
-0.00604151
-0.00608438
-0.00613117
-0.00618212
-0.0062375
-0.00629758
-0.00636266
-0.00643306
-0.00650912
-0.00659121
-0.00667974
-0.00677514
-0.00687789
-0.00698852
-0.0071076
-0.00723577
-0.00737373
-0.00752228
-0.00768227
-0.00785468
-0.00804061
-0.00824128
-0.00845806
-0.0086925
-0.00894632
-0.00922148
-0.00952016
-0.00984483
-0.0101982
-0.0105834
-0.0110039
-0.0114633
-0.0119659
-0.0125162
-0.0131193
-0.0137804
-0.0145053
-0.0153
-0.0161706
-0.0171236
-0.0181653
-0.0193017
-0.0205387
-0.0218814
-0.0233343
-0.0249004
-0.0265818
-0.0283789
-0.0302901
-0.0323124
-0.0344405
-0.0366672
-0.0389838
-0.0413795
-0.0438425
-0.04636
-0.0489184
-0.0515037
-0.0541023
-0.0567007
-0.0592859
-0.0618455
-0.0643675
-0.0668403
-0.0692523
-0.0715918
-0.0738461
-0.0760017
-0.0780437
-0.00597747
-0.005968
-0.00595949
-0.00595218
-0.0059455
-0.00593936
-0.00593382
-0.00592896
-0.00592482
-0.00592145
-0.00591891
-0.00591724
-0.00591651
-0.0059168
-0.00591817
-0.0059207
-0.00592448
-0.00592959
-0.00593613
-0.0059442
-0.0059539
-0.00596535
-0.00597867
-0.00599399
-0.00601145
-0.00603118
-0.00605334
-0.00607809
-0.00610559
-0.00613603
-0.0061696
-0.00620649
-0.00624693
-0.00629113
-0.00633934
-0.00639181
-0.00644882
-0.00651066
-0.00657764
-0.0066501
-0.00672841
-0.00681296
-0.00690419
-0.00700255
-0.00710857
-0.00722281
-0.00734589
-0.00747849
-0.00762139
-0.00777543
-0.00794156
-0.00812083
-0.00831443
-0.00852369
-0.00875011
-0.00899535
-0.00926131
-0.0095501
-0.0098641
-0.010206
-0.0105786
-0.0109855
-0.0114301
-0.0119166
-0.0124493
-0.0130332
-0.0136734
-0.0143754
-0.0151453
-0.015989
-0.0169129
-0.0179233
-0.0190262
-0.0202276
-0.0215327
-0.0229462
-0.0244715
-0.0261109
-0.0278653
-0.0297338
-0.0317137
-0.0338004
-0.0359875
-0.0382665
-0.0406275
-0.043059
-0.0455485
-0.0480824
-0.0506471
-0.0532286
-0.0558132
-0.0583875
-0.0609386
-0.063454
-0.0659215
-0.068329
-0.0706641
-0.072914
-0.0750648
-0.0771014
-0.00615856
-0.00614894
-0.00614027
-0.0061328
-0.00612594
-0.0061196
-0.00611384
-0.00610874
-0.00610433
-0.00610065
-0.00609776
-0.00609571
-0.00609456
-0.00609437
-0.0060952
-0.00609713
-0.00610024
-0.00610461
-0.00611032
-0.00611748
-0.00612617
-0.00613652
-0.00614862
-0.00616261
-0.00617862
-0.00619677
-0.00621721
-0.00624011
-0.00626561
-0.00629391
-0.00632517
-0.0063596
-0.0063974
-0.0064388
-0.00648403
-0.00653335
-0.00658702
-0.00664532
-0.00670858
-0.00677712
-0.00685131
-0.00693152
-0.00701819
-0.00711177
-0.00721277
-0.00732173
-0.00743928
-0.00756607
-0.00770285
-0.00785044
-0.00800977
-0.00818187
-0.00836787
-0.00856907
-0.00878692
-0.00902302
-0.00927921
-0.00955752
-0.00986024
-0.01019
-0.0105495
-0.0109421
-0.0113713
-0.011841
-0.0123555
-0.0129195
-0.0135381
-0.0142166
-0.0149609
-0.0157769
-0.0166709
-0.0176491
-0.0187176
-0.0198824
-0.0211488
-0.0225216
-0.0240047
-0.0256006
-0.0273106
-0.0291345
-0.03107
-0.0331132
-0.0352582
-0.0374973
-0.039821
-0.0422183
-0.044677
-0.0471839
-0.0497253
-0.0522872
-0.0548556
-0.0574169
-0.0599575
-0.0624646
-0.0649253
-0.067327
-0.0696568
-0.0719014
-0.0740467
-0.0760774
-0.00632894
-0.00631924
-0.00631048
-0.00630291
-0.00629593
-0.00628945
-0.00628352
-0.00627823
-0.00627359
-0.00626965
-0.00626646
-0.00626406
-0.00626251
-0.00626186
-0.00626218
-0.00626353
-0.00626597
-0.0062696
-0.00627448
-0.0062807
-0.00628836
-0.00629756
-0.0063084
-0.006321
-0.00633548
-0.00635196
-0.0063706
-0.00639153
-0.00641491
-0.00644091
-0.00646971
-0.0065015
-0.00653648
-0.00657487
-0.0066169
-0.00666282
-0.00671289
-0.00676739
-0.00682663
-0.00689094
-0.00696067
-0.00703621
-0.00711796
-0.00720638
-0.00730197
-0.00740526
-0.00751685
-0.00763739
-0.0077676
-0.0079083
-0.00806037
-0.00822481
-0.00840273
-0.00859538
-0.00880415
-0.00903061
-0.00927651
-0.00954383
-0.00983478
-0.0101518
-0.0104977
-0.0108756
-0.0112889
-0.0117413
-0.012237
-0.0127806
-0.013377
-0.0140315
-0.0147497
-0.0155375
-0.016401
-0.0173463
-0.0183797
-0.0195071
-0.0207339
-0.0220651
-0.0235049
-0.025056
-0.0267203
-0.028498
-0.0303873
-0.0323851
-0.0344859
-0.0366827
-0.0389667
-0.0413272
-0.0437526
-0.0462298
-0.0487454
-0.0512852
-0.0538351
-0.0563811
-0.0589094
-0.0614064
-0.0638588
-0.0662534
-0.0685769
-0.0708155
-0.0729547
-0.074979
-0.0064892
-0.00647949
-0.00647072
-0.00646311
-0.00645606
-0.00644949
-0.00644346
-0.00643801
-0.0064332
-0.00642904
-0.00642559
-0.00642288
-0.00642096
-0.00641989
-0.00641971
-0.00642048
-0.00642228
-0.00642516
-0.00642919
-0.00643447
-0.00644107
-0.00644909
-0.00645862
-0.00646977
-0.00648266
-0.0064974
-0.00651413
-0.00653299
-0.00655412
-0.0065777
-0.00660388
-0.00663287
-0.00666484
-0.00670003
-0.00673864
-0.00678093
-0.00682715
-0.00687759
-0.00693254
-0.00699232
-0.00705729
-0.00712781
-0.00720431
-0.00728722
-0.00737702
-0.00747426
-0.0075795
-0.00769338
-0.00781663
-0.00795
-0.00809438
-0.00825073
-0.00842013
-0.00860378
-0.00880302
-0.00901939
-0.00925456
-0.00951044
-0.00978916
-0.0100931
-0.010425
-0.0107877
-0.0111846
-0.0116193
-0.0120959
-0.0126187
-0.0131926
-0.0138227
-0.0145144
-0.0152736
-0.0161062
-0.0170184
-0.0180162
-0.0191056
-0.0202923
-0.0215812
-0.0229768
-0.0244823
-0.0260997
-0.0278298
-0.0296716
-0.0316221
-0.0336769
-0.0358294
-0.0380714
-0.0403928
-0.0427823
-0.0452274
-0.0477145
-0.0502298
-0.0527588
-0.0552874
-0.0578013
-0.0602864
-0.0627291
-0.0651154
-0.0674316
-0.0696634
-0.071796
-0.0738136
-0.00663993
-0.00663029
-0.00662156
-0.00661397
-0.00660692
-0.00660032
-0.00659422
-0.00658869
-0.00658374
-0.00657941
-0.00657574
-0.00657276
-0.00657051
-0.00656903
-0.00656838
-0.0065686
-0.00656975
-0.00657189
-0.00657508
-0.0065794
-0.00658492
-0.00659173
-0.00659991
-0.00660956
-0.00662079
-0.00663371
-0.00664845
-0.00666513
-0.0066839
-0.00670492
-0.00672835
-0.00675437
-0.00678317
-0.00681496
-0.00684995
-0.00688839
-0.00693053
-0.00697665
-0.00702703
-0.00708201
-0.00714191
-0.00720712
-0.00727804
-0.0073551
-0.00743878
-0.00752959
-0.00762811
-0.00773497
-0.00785085
-0.00797651
-0.00811281
-0.00826067
-0.00842114
-0.00859539
-0.00878472
-0.00899059
-0.00921464
-0.00945871
-0.00972484
-0.0100153
-0.0103328
-0.01068
-0.0110602
-0.011477
-0.0119342
-0.012436
-0.0129871
-0.0135926
-0.0142577
-0.014988
-0.0157896
-0.0166684
-0.0176304
-0.0186816
-0.0198278
-0.021074
-0.0224249
-0.0238841
-0.0254539
-0.0271354
-0.0289283
-0.0308303
-0.0328374
-0.0349438
-0.0371417
-0.0394218
-0.0417731
-0.0441835
-0.0466398
-0.0491281
-0.0516339
-0.0541429
-0.0566403
-0.0591118
-0.0615431
-0.0639199
-0.0662278
-0.0684521
-0.0705775
-0.0725881
-0.00678172
-0.00677222
-0.0067636
-0.00675609
-0.00674909
-0.00674252
-0.00673642
-0.00673084
-0.00672581
-0.00672136
-0.00671751
-0.00671429
-0.00671174
-0.00670989
-0.00670879
-0.00670847
-0.00670899
-0.00671039
-0.00671274
-0.00671609
-0.00672051
-0.00672608
-0.00673287
-0.00674097
-0.00675048
-0.00676151
-0.00677417
-0.00678859
-0.00680489
-0.00682323
-0.00684377
-0.00686667
-0.00689212
-0.00692033
-0.00695151
-0.00698589
-0.00702372
-0.00706527
-0.00711084
-0.00716074
-0.0072153
-0.0072749
-0.00733993
-0.00741082
-0.00748804
-0.0075721
-0.00766356
-0.00776304
-0.0078712
-0.00798879
-0.00811663
-0.00825564
-0.00840682
-0.00857132
-0.00875038
-0.00894542
-0.00915803
-0.00938996
-0.00964319
-0.00991995
-0.0102227
-0.0105542
-0.0109176
-0.0113162
-0.0117538
-0.0122345
-0.0127628
-0.0133435
-0.0139819
-0.0146835
-0.015454
-0.0162993
-0.0172256
-0.0182386
-0.0193442
-0.0205476
-0.0218535
-0.0232659
-0.0247875
-0.0264198
-0.028163
-0.0300152
-0.0319733
-0.0340319
-0.0361839
-0.0384207
-0.0407317
-0.0431052
-0.0455283
-0.0479872
-0.0504675
-0.0529546
-0.0554336
-0.0578897
-0.0603081
-0.062674
-0.0649725
-0.0671885
-0.0693063
-0.0713097
-0.00691516
-0.00690587
-0.00689743
-0.00689006
-0.00688317
-0.00687667
-0.00687062
-0.00686506
-0.00686
-0.00685546
-0.00685147
-0.00684806
-0.00684524
-0.00684305
-0.00684153
-0.00684069
-0.00684059
-0.00684127
-0.00684277
-0.00684514
-0.00684844
-0.00685274