/*--------------------------------*- C++ -*----------------------------------*\
| =========                 |                                                 |
| \\      /  F ield         | OpenFOAM: The Open Source CFD Toolbox           |
|  \\    /   O peration     | Version:  2406                                  |
|   \\  /    A nd           | Website:  www.openfoam.com                      |
|    \\/     M anipulation  |                                                 |
\*---------------------------------------------------------------------------*/
FoamFile
{
    version     2.0;
    format      ascii;
    arch        "LSB;label=32;scalar=64";
    class       surfaceScalarField;
    location    "10";
    object      phi;
}
// * * * * * * * * * * * * * * * * * * * * * * * * * * * * * * * * * * * * * //

dimensions      [0 3 -1 0 0 0 0];

oriented        oriented;

internalField   nonuniform List<scalar> 
79600
(
-2.85344e-09
2.73095e-07
-2.7026e-07
-1.1607e-08
8.19379e-07
-8.10625e-07
-2.66333e-08
1.37413e-06
-1.35911e-06
-4.83009e-08
1.93696e-06
-1.9153e-06
-7.69915e-08
2.50745e-06
-2.47876e-06
-1.13098e-07
3.08515e-06
-3.04905e-06
-1.57023e-07
3.6696e-06
-3.62567e-06
-2.09176e-07
4.2603e-06
-4.20815e-06
-2.69974e-07
4.85676e-06
-4.79596e-06
-3.39837e-07
5.45845e-06
-5.38858e-06
-4.19188e-07
6.06483e-06
-5.98548e-06
-5.08447e-07
6.67538e-06
-6.58612e-06
-6.08035e-07
7.28954e-06
-7.18995e-06
-7.18368e-07
7.90677e-06
-7.79644e-06
-8.39855e-07
8.52654e-06
-8.40505e-06
-9.72897e-07
9.1483e-06
-9.01525e-06
-1.11789e-06
9.77155e-06
-9.62656e-06
-1.2752e-06
1.03958e-05
-1.02385e-05
-1.44521e-06
1.10206e-05
-1.08505e-05
-1.62827e-06
1.16454e-05
-1.14624e-05
-1.82471e-06
1.227e-05
-1.20736e-05
-2.03485e-06
1.2894e-05
-1.26838e-05
-2.259e-06
1.3517e-05
-1.32929e-05
-2.49745e-06
1.41389e-05
-1.39005e-05
-2.75047e-06
1.47596e-05
-1.45066e-05
-3.01831e-06
1.53789e-05
-1.5111e-05
-3.30121e-06
1.59969e-05
-1.5714e-05
-3.59941e-06
1.66137e-05
-1.63155e-05
-3.91312e-06
1.72295e-05
-1.69158e-05
-4.24255e-06
1.78447e-05
-1.75152e-05
-4.58791e-06
1.84597e-05
-1.81144e-05
-4.94939e-06
1.90752e-05
-1.87137e-05
-5.32721e-06
1.96919e-05
-1.93141e-05
-5.72156e-06
2.03107e-05
-1.99163e-05
-6.13269e-06
2.09326e-05
-2.05215e-05
-6.56082e-06
2.1559e-05
-2.11309e-05
-7.00622e-06
2.21913e-05
-2.17459e-05
-7.46918e-06
2.28312e-05
-2.23682e-05
-7.95003e-06
2.34805e-05
-2.29996e-05
-8.44915e-06
2.41414e-05
-2.36423e-05
-8.96695e-06
2.48163e-05
-2.42985e-05
-9.50391e-06
2.55079e-05
-2.49709e-05
-1.00606e-05
2.62191e-05
-2.56625e-05
-1.06375e-05
2.69535e-05
-2.63765e-05
-1.12355e-05
2.77145e-05
-2.71166e-05
-1.18552e-05
2.85064e-05
-2.78867e-05
-1.24975e-05
2.93337e-05
-2.86913e-05
-1.31634e-05
3.02011e-05
-2.95353e-05
-1.38539e-05
3.11143e-05
-3.04238e-05
-1.457e-05
3.20789e-05
-3.13628e-05
-1.53131e-05
3.31013e-05
-3.23583e-05
-1.60843e-05
3.41883e-05
-3.34171e-05
-1.68849e-05
3.53471e-05
-3.45464e-05
-1.77165e-05
3.65852e-05
-3.57537e-05
-1.85804e-05
3.79107e-05
-3.70468e-05
-1.9478e-05
3.93315e-05
-3.84339e-05
-2.04107e-05
4.0856e-05
-3.99233e-05
-2.13798e-05
4.24923e-05
-4.15232e-05
-2.23865e-05
4.42482e-05
-4.32415e-05
-2.34318e-05
4.61309e-05
-4.50857e-05
-2.45164e-05
4.8147e-05
-4.70623e-05
-2.56408e-05
5.03014e-05
-4.9177e-05
-2.6805e-05
5.25978e-05
-5.14336e-05
-2.80087e-05
5.50377e-05
-5.38341e-05
-2.92507e-05
5.76199e-05
-5.63779e-05
-3.05294e-05
6.03405e-05
-5.90618e-05
-3.18425e-05
6.3192e-05
-6.18789e-05
-3.31867e-05
6.61629e-05
-6.48187e-05
-3.4558e-05
6.92376e-05
-6.78663e-05
-3.59513e-05
7.23957e-05
-7.10024e-05
-3.73607e-05
7.56122e-05
-7.42028e-05
-3.87793e-05
7.88572e-05
-7.74385e-05
-4.01995e-05
8.20959e-05
-8.06757e-05
-4.16128e-05
8.52893e-05
-8.38759e-05
-4.30103e-05
8.83942e-05
-8.69967e-05
-4.43826e-05
9.13647e-05
-8.99924e-05
-4.57204e-05
9.41523e-05
-9.28146e-05
-4.70145e-05
9.67083e-05
-9.54141e-05
-4.82567e-05
9.89841e-05
-9.77419e-05
-4.94396e-05
0.000100934
-9.9751e-05
-5.05577e-05
0.000102516
-0.000101398
-5.16071e-05
0.000103695
-0.000102645
-5.25867e-05
0.000104441
-0.000103462
-5.34976e-05
0.000104737
-0.000103826
-5.4344e-05
0.000104572
-0.000103726
-5.51328e-05
0.000103948
-0.00010316
-5.58736e-05
0.000102876
-0.000102135
-5.65784e-05
0.000101374
-0.00010067
-5.72608e-05
9.94708e-05
-9.87885e-05
-5.79354e-05
9.71963e-05
-9.65217e-05
-5.86172e-05
9.45835e-05
-9.39017e-05
-5.93202e-05
9.16632e-05
-9.09602e-05
-6.00569e-05
8.84612e-05
-8.77245e-05
-6.08373e-05
8.49955e-05
-8.42151e-05
-6.16681e-05
8.12737e-05
-8.04429e-05
-6.25524e-05
7.72922e-05
-7.64079e-05
-6.34894e-05
7.30358e-05
-7.20989e-05
-6.44741e-05
6.84786e-05
-6.74939e-05
-6.54982e-05
6.3586e-05
-6.25619e-05
5.83172e-05
-6.65502e-05
-5.72653e-05
-2.21475e-09
2.7531e-07
-9.12795e-09
8.26292e-07
-2.10998e-08
1.3861e-06
-3.85049e-08
1.95437e-06
-6.1733e-08
2.53068e-06
-9.11869e-08
3.11461e-06
-1.27281e-07
3.70569e-06
-1.7044e-07
4.30346e-06
-2.21096e-07
4.90741e-06
-2.79685e-07
5.51704e-06
-3.46651e-07
6.1318e-06
-4.22436e-07
6.75117e-06
-5.07481e-07
7.37459e-06
-6.02228e-07
8.00152e-06
-7.07109e-07
8.63142e-06
-8.22553e-07
9.26374e-06
-9.48978e-07
9.89797e-06
-1.08679e-06
1.05336e-05
-1.23638e-06
1.11702e-05
-1.39814e-06
1.18072e-05
-1.57242e-06
1.24443e-05
-1.75957e-06
1.30811e-05
-1.95992e-06
1.37174e-05
-2.17378e-06
1.43528e-05
-2.40145e-06
1.49872e-05
-2.64319e-06
1.56206e-05
-2.89926e-06
1.62529e-05
-3.1699e-06
1.68843e-05
-3.45534e-06
1.75149e-05
-3.75578e-06
1.81451e-05
-4.07143e-06
1.87754e-05
-4.40248e-06
1.94063e-05
-4.74912e-06
2.00385e-05
-5.11154e-06
2.06731e-05
-5.48993e-06
2.1311e-05
-5.88448e-06
2.19536e-05
-6.29542e-06
2.26023e-05
-6.72297e-06
2.32587e-05
-7.1674e-06
2.39249e-05
-7.629e-06
2.4603e-05
-8.10807e-06
2.52953e-05
-8.605e-06
2.60048e-05
-9.1202e-06
2.67343e-05
-9.65412e-06
2.74874e-05
-1.02073e-05
2.82677e-05
-1.07803e-05
2.90794e-05
-1.13738e-05
2.99271e-05
-1.19885e-05
3.08158e-05
-1.26251e-05
3.17509e-05
-1.32846e-05
3.27384e-05
-1.39677e-05
3.37845e-05
-1.46755e-05
3.48961e-05
-1.54089e-05
3.60805e-05
-1.6169e-05
3.73453e-05
-1.69566e-05
3.86983e-05
-1.77729e-05
4.01478e-05
-1.86186e-05
4.17018e-05
-1.94948e-05
4.33685e-05
-2.04021e-05
4.51554e-05
-2.13409e-05
4.70698e-05
-2.23118e-05
4.91178e-05
-2.33146e-05
5.13042e-05
-2.4349e-05
5.36322e-05
-2.54143e-05
5.6103e-05
-2.65093e-05
5.87149e-05
-2.76322e-05
6.14634e-05
-2.87806e-05
6.43404e-05
-2.99515e-05
6.73338e-05
-3.11412e-05
7.04272e-05
-3.23451e-05
7.35997e-05
-3.35582e-05
7.68253e-05
-3.47746e-05
8.00735e-05
-3.59877e-05
8.3309e-05
-3.71907e-05
8.64922e-05
-3.83761e-05
8.95797e-05
-3.95367e-05
9.25252e-05
-4.0665e-05
9.52807e-05
-4.17543e-05
9.77975e-05
-4.27983e-05
0.000100028
-4.37922e-05
0.000101928
-4.47323e-05
0.000103456
-4.56169e-05
0.000104579
-4.64463e-05
0.000105271
-4.72232e-05
0.000105514
-4.79525e-05
0.000105302
-4.86412e-05
0.000104637
-4.92988e-05
0.000103533
-4.99361e-05
0.000102012
-5.05654e-05
0.0001001
-5.11993e-05
9.78302e-05
-5.18503e-05
9.52345e-05
-5.25299e-05
9.23428e-05
-5.32478e-05
8.91792e-05
-5.40116e-05
8.57592e-05
-5.48255e-05
8.20877e-05
-5.56909e-05
7.81576e-05
-5.66055e-05
7.39504e-05
-5.7564e-05
6.94371e-05
-5.85579e-05
6.45799e-05
5.93358e-05
-5.95765e-05
-1.61585e-09
2.76925e-07
-6.75466e-09
8.31431e-07
-1.57774e-08
1.39513e-06
-2.90628e-08
1.96765e-06
-4.70061e-08
2.54862e-06
-7.00175e-08
3.13762e-06
-9.85202e-08
3.7342e-06
-1.32949e-07
4.33789e-06
-1.73749e-07
4.94821e-06
-2.21372e-07
5.56466e-06
-2.76275e-07
6.1867e-06
-3.38918e-07
6.81381e-06
-4.09764e-07
7.44543e-06
-4.89272e-07
8.08103e-06
-5.77898e-07
8.72004e-06
-6.76092e-07
9.36194e-06
-7.84295e-07
1.00062e-05
-9.0294e-07
1.06522e-05
-1.03244e-06
1.12997e-05
-1.17321e-06
1.1948e-05
-1.32563e-06
1.25967e-05
-1.49007e-06
1.32456e-05
-1.66688e-06
1.38942e-05
-1.85639e-06
1.45423e-05
-2.05892e-06
1.51898e-05
-2.27475e-06
1.58364e-05
-2.50415e-06
1.64823e-05
-2.74737e-06
1.71275e-05
-3.00465e-06
1.77722e-05
-3.27619e-06
1.84167e-05
-3.56219e-06
1.90614e-05
-3.86284e-06
1.97069e-05
-4.1783e-06
2.0354e-05
-4.50874e-06
2.10035e-05
-4.85433e-06
2.16566e-05
-5.21522e-06
2.23145e-05
-5.59157e-06
2.29786e-05
-5.98357e-06
2.36507e-05
-6.3914e-06
2.43327e-05
-6.81526e-06
2.50268e-05
-7.25538e-06
2.57355e-05
-7.71202e-06
2.64614e-05
-8.18546e-06
2.72078e-05
-8.67602e-06
2.79779e-05
-9.18407e-06
2.87758e-05
-9.71e-06
2.96054e-05
-1.02543e-05
3.04714e-05
-1.08174e-05
3.13789e-05
-1.13998e-05
3.23334e-05
-1.20021e-05
3.33407e-05
-1.2625e-05
3.44073e-05
-1.3269e-05
3.55401e-05
-1.39347e-05
3.67463e-05
-1.46228e-05
3.80334e-05
-1.5334e-05
3.94095e-05
-1.60687e-05
4.08825e-05
-1.68275e-05
4.24606e-05
-1.76108e-05
4.41518e-05
-1.84189e-05
4.59635e-05
-1.92519e-05
4.79028e-05
-2.01096e-05
4.99756e-05
-2.09919e-05
5.21864e-05
-2.1898e-05
5.45383e-05
-2.28269e-05
5.70319e-05
-2.37773e-05
5.96653e-05
-2.47474e-05
6.24335e-05
-2.57349e-05
6.53279e-05
-2.6737e-05
6.83359e-05
-2.77503e-05
7.14406e-05
-2.87711e-05
7.46205e-05
-2.9795e-05
7.78492e-05
-3.08172e-05
8.10957e-05
-3.18324e-05
8.43242e-05
-3.28351e-05
8.74949e-05
-3.38197e-05
9.05643e-05
-3.47807e-05
9.34861e-05
-3.57126e-05
9.62126e-05
-3.66106e-05
9.86955e-05
-3.74707e-05
0.000100888
-3.82899e-05
0.000102747
-3.90665e-05
0.000104233
-3.98004e-05
0.000105313
-4.04933e-05
0.000105964
-4.11485e-05
0.000106169
-4.17715e-05
0.000105925
-4.23693e-05
0.000105235
-4.29505e-05
0.000104115
-4.35249e-05
0.000102586
-4.41029e-05
0.000100678
-4.46951e-05
9.84224e-05
-4.53116e-05
9.58509e-05
-4.59612e-05
9.29925e-05
-4.66515e-05
8.98694e-05
-4.73873e-05
8.64951e-05
-4.81714e-05
8.28717e-05
-4.90034e-05
7.89896e-05
-4.98805e-05
7.48275e-05
-5.0797e-05
7.03536e-05
-5.17452e-05
6.55281e-05
6.03059e-05
-5.27153e-05
-1.04478e-09
2.7797e-07
-4.48651e-09
8.34873e-07
-1.06862e-08
1.40133e-06
-2.00237e-08
1.97699e-06
-3.28971e-08
2.5615e-06
-4.97205e-08
3.15444e-06
-7.0923e-08
3.7554e-06
-9.69469e-08
4.36391e-06
-1.28246e-07
4.97951e-06
-1.65282e-07
5.60169e-06
-2.08526e-07
6.22995e-06
-2.58451e-07
6.86373e-06
-3.15535e-07
7.50252e-06
-3.80254e-07
8.14575e-06
-4.53083e-07
8.79287e-06
-5.3449e-07
9.44334e-06
-6.24938e-07
1.00966e-05
-7.24878e-07
1.07522e-05
-8.3475e-07
1.14095e-05
-9.5498e-07
1.20682e-05
-1.08598e-06
1.27277e-05
-1.22813e-06
1.33877e-05
-1.38182e-06
1.40479e-05
-1.54738e-06
1.47079e-05
-1.72515e-06
1.53675e-05
-1.91543e-06
1.60267e-05
-2.1185e-06
1.66854e-05
-2.33462e-06
1.73436e-05
-2.56403e-06
1.80016e-05
-2.80694e-06
1.86596e-05
-3.06354e-06
1.9318e-05
-3.334e-06
1.99774e-05
-3.61849e-06
2.06385e-05
-3.91714e-06
2.13022e-05
-4.23009e-06
2.19696e-05
-4.55745e-06
2.26418e-05
-4.89934e-06
2.33205e-05
-5.25588e-06
2.40073e-05
-5.62719e-06
2.4704e-05
-6.01338e-06
2.5413e-05
-6.4146e-06
2.61367e-05
-6.83099e-06
2.68778e-05
-7.2627e-06
2.76395e-05
-7.70993e-06
2.84252e-05
-8.17288e-06
2.92387e-05
-8.65177e-06
3.00843e-05
-9.14684e-06
3.09665e-05
-9.65838e-06
3.18905e-05
-1.01867e-05
3.28616e-05
-1.0732e-05
3.3886e-05
-1.12947e-05
3.497e-05
-1.18751e-05
3.61205e-05
-1.24734e-05
3.73446e-05
-1.30901e-05
3.865e-05
-1.37252e-05
4.00446e-05
-1.4379e-05
4.15363e-05
-1.50516e-05
4.31332e-05
-1.5743e-05
4.48432e-05
-1.64532e-05
4.66736e-05
-1.71817e-05
4.86314e-05
-1.79283e-05
5.07221e-05
-1.86922e-05
5.29503e-05
-1.94725e-05
5.53187e-05
-2.02681e-05
5.78275e-05
-2.10775e-05
6.04748e-05
-2.1899e-05
6.3255e-05
-2.27303e-05
6.61592e-05
-2.3569e-05
6.91746e-05
-2.44123e-05
7.22839e-05
-2.52569e-05
7.54651e-05
-2.60993e-05
7.86916e-05
-2.69359e-05
8.19322e-05
-2.77624e-05
8.51508e-05
-2.85751e-05
8.83076e-05
-2.93697e-05
9.13589e-05
-3.01424e-05
9.42589e-05
-3.08898e-05
9.69599e-05
-3.16088e-05
9.94146e-05
-3.22974e-05
0.000101577
-3.29544e-05
0.000103404
-3.35796e-05
0.000104858
-3.41742e-05
0.000105908
-3.4741e-05
0.00010653
-3.5284e-05
0.000106712
-3.58087e-05
0.000106449
-3.63216e-05
0.000105748
-3.68307e-05
0.000104624
-3.73441e-05
0.0001031
-3.78705e-05
0.000101205
-3.84184e-05
9.89702e-05
-3.89955e-05
9.6428e-05
-3.96084e-05
9.36054e-05
-4.02622e-05
9.05232e-05
-4.096e-05
8.71929e-05
-4.17028e-05
8.36145e-05
-4.24893e-05
7.97762e-05
-4.33164e-05
7.56545e-05
-4.41785e-05
7.12157e-05
-4.50687e-05
6.64183e-05
6.1216e-05
-4.59788e-05
-5.03856e-10
2.78474e-07
-2.33663e-09
8.36706e-07
-5.85671e-09
1.40485e-06
-1.14425e-08
1.98258e-06
-1.94915e-08
2.56955e-06
-3.04192e-08
3.16537e-06
-4.46572e-08
3.76964e-06
-6.26518e-08
4.38191e-06
-8.48622e-08
5.00172e-06
-1.11758e-07
5.62859e-06
-1.43817e-07
6.26201e-06
-1.81525e-07
6.90144e-06
-2.2537e-07
7.54636e-06
-2.75841e-07
8.19622e-06
-3.33427e-07
8.85046e-06
-3.98614e-07
9.50853e-06
-4.71879e-07
1.01699e-05
-5.53693e-07
1.0834e-05
-6.44512e-07
1.15003e-05
-7.44782e-07
1.21685e-05
-8.5493e-07
1.28379e-05
-9.75366e-07
1.35081e-05
-1.10648e-06
1.4179e-05
-1.24863e-06
1.485e-05
-1.40217e-06
1.55211e-05
-1.56742e-06
1.6192e-05
-1.74466e-06
1.68627e-05
-1.93416e-06
1.75331e-05
-2.13617e-06
1.82036e-05
-2.35089e-06
1.88743e-05
-2.57852e-06
1.95456e-05
-2.81921e-06
2.02181e-05
-3.07312e-06
2.08924e-05
-3.34036e-06
2.15694e-05
-3.62102e-06
2.22502e-05
-3.91521e-06
2.2936e-05
-4.22298e-06
2.36283e-05
-4.54439e-06
2.43287e-05
-4.8795e-06
2.50392e-05
-5.22835e-06
2.57619e-05
-5.59098e-06
2.64993e-05
-5.96744e-06
2.72543e-05
-6.35776e-06
2.80298e-05
-6.762e-06
2.88294e-05
-7.1802e-06
2.96569e-05
-7.61243e-06
3.05165e-05
-8.05873e-06
3.14128e-05
-8.51918e-06
3.23509e-05
-8.99384e-06
3.33363e-05
-9.48274e-06
3.43749e-05
-9.98595e-06
3.54732e-05
-1.05035e-05
3.6638e-05
-1.10353e-05
3.78764e-05
-1.15814e-05
3.91961e-05
-1.21416e-05
4.06048e-05
-1.27159e-05
4.21105e-05
-1.33038e-05
4.37212e-05
-1.39051e-05
4.54445e-05
-1.45193e-05
4.72879e-05
-1.51458e-05
4.92579e-05
-1.57839e-05
5.13601e-05
-1.64325e-05
5.3599e-05
-1.70906e-05
5.59768e-05
-1.77569e-05
5.84938e-05
-1.84299e-05
6.11477e-05
-1.91077e-05
6.39328e-05
-1.97885e-05
6.684e-05
-2.04701e-05
6.98562e-05
-2.11501e-05
7.29639e-05
-2.1826e-05
7.6141e-05
-2.24952e-05
7.93608e-05
-2.31548e-05
8.25918e-05
-2.38021e-05
8.57981e-05
-2.44345e-05
8.89399e-05
-2.50494e-05
9.19738e-05
-2.56445e-05
9.4854e-05
-2.62182e-05
9.75337e-05
-2.67693e-05
9.99657e-05
-2.72972e-05
0.000102105
-2.78023e-05
0.000103909
-2.82859e-05
0.000105342
-2.87505e-05
0.000106372
-2.91993e-05
0.000106979
-2.96369e-05
0.00010715
-3.00686e-05
0.000106881
-3.05006e-05
0.00010618
-3.09394e-05
0.000105062
-3.13921e-05
0.000103552
-3.18653e-05
0.000101678
-3.23655e-05
9.94705e-05
-3.28982e-05
9.69607e-05
-3.34679e-05
9.4175e-05
-3.40775e-05
9.11328e-05
-3.47285e-05
8.78439e-05
-3.54207e-05
8.43066e-05
-3.61521e-05
8.05076e-05
-3.69194e-05
7.64218e-05
-3.77177e-05
7.2014e-05
-3.85411e-05
6.72417e-05
6.20578e-05
-3.93829e-05
3.98493e-12
2.7847e-07
-3.16281e-10
8.37026e-07
-1.31379e-09
1.40584e-06
-3.36301e-09
1.98463e-06
-6.85854e-09
2.57304e-06
-1.2214e-08
3.17072e-06
-1.98604e-08
3.77728e-06
-3.02448e-08
4.39229e-06
-4.38282e-08
5.01531e-06
-6.10839e-08
5.64585e-06
-8.24953e-08
6.28342e-06
-1.08553e-07
6.9275e-06
-1.39754e-07
7.57756e-06
-1.76598e-07
8.23306e-06
-2.19582e-07
8.89344e-06
-2.69206e-07
9.55815e-06
-3.25959e-07
1.02266e-05
-3.90326e-07
1.08984e-05
-4.6278e-07
1.15728e-05
-5.4378e-07
1.22495e-05
-6.3377e-07
1.29278e-05
-7.33174e-07
1.36076e-05
-8.42398e-07
1.42882e-05
-9.61821e-07
1.49694e-05
-1.0918e-06
1.56511e-05
-1.23267e-06
1.63328e-05
-1.38472e-06
1.70147e-05
-1.54824e-06
1.76967e-05
-1.72346e-06
1.83788e-05
-1.91061e-06
1.90614e-05
-2.10985e-06
1.97448e-05
-2.32136e-06
2.04296e-05
-2.54526e-06
2.11163e-05
-2.78165e-06
2.18058e-05
-3.03059e-06
2.24992e-05
-3.29214e-06
2.31976e-05
-3.56633e-06
2.39025e-05
-3.85316e-06
2.46155e-05
-4.15261e-06
2.53386e-05
-4.46467e-06
2.60739e-05
-4.78927e-06
2.68239e-05
-5.12637e-06
2.75914e-05
-5.4759e-06
2.83793e-05
-5.83777e-06
2.91913e-05
-6.21189e-06
3.0031e-05
-6.59815e-06
3.09028e-05
-6.99645e-06
3.18111e-05
-7.40663e-06
3.27611e-05
-7.82854e-06
3.37582e-05
-8.262e-06
3.48084e-05
-8.7068e-06
3.5918e-05
-9.16269e-06
3.70939e-05
-9.62935e-06
3.83431e-05
-1.01064e-05
3.96732e-05
-1.05935e-05
4.10919e-05
-1.10901e-05
4.26071e-05
-1.15955e-05
4.42266e-05
-1.21092e-05
4.59582e-05
-1.26302e-05
4.78089e-05
-1.31578e-05
4.97854e-05
-1.36907e-05
5.18931e-05
-1.42279e-05
5.41362e-05
-1.47681e-05
5.6517e-05
-1.53098e-05
5.90355e-05
-1.58515e-05
6.16894e-05
-1.63915e-05
6.44728e-05
-1.6928e-05
6.73766e-05
-1.74593e-05
7.03875e-05
-1.79834e-05
7.3488e-05
-1.84985e-05
7.66561e-05
-1.90026e-05
7.98649e-05
-1.94942e-05
8.30833e-05
-1.99714e-05
8.62754e-05
-2.0433e-05
8.94015e-05
-2.08778e-05
9.24186e-05
-2.13053e-05
9.52815e-05
-2.17151e-05
9.79435e-05
-2.21077e-05
0.000100358
-2.24842e-05
0.000102481
-2.28463e-05
0.000104271
-2.31964e-05
0.000105692
-2.3538e-05
0.000106714
-2.3875e-05
0.000107316
-2.4212e-05
0.000107487
-2.45543e-05
0.000107223
-2.49073e-05
0.000106533
-2.52765e-05
0.000105432
-2.56674e-05
0.000103943
-2.60851e-05
0.000102095
-2.6534e-05
9.99193e-05
-2.70175e-05
9.74442e-05
-2.7538e-05
9.46956e-05
-2.80969e-05
9.16917e-05
-2.86941e-05
8.84411e-05
-2.93285e-05
8.4941e-05
-2.99976e-05
8.11768e-05
-3.06982e-05
7.71224e-05
-3.14261e-05
7.27419e-05
-3.21766e-05
6.79923e-05
6.28259e-05
-3.29447e-05
4.7628e-10
2.77994e-07
1.56601e-09
8.35936e-07
2.92298e-09
1.40449e-06
4.17922e-09
1.98337e-06
4.94578e-09
2.57227e-06
4.8138e-09
3.17086e-06
3.35583e-09
3.77874e-06
1.27393e-10
4.39552e-06
-5.33147e-09
5.02076e-06
-1.34939e-08
5.65401e-06
-2.48447e-08
6.29477e-06
-3.98776e-08
6.94253e-06
-5.90932e-08
7.59678e-06
-8.29964e-08
8.25696e-06
-1.12093e-07
8.92254e-06
-1.46889e-07
9.59295e-06
-1.87886e-07
1.02676e-05
-2.35576e-07
1.09461e-05
-2.90445e-07
1.16277e-05
-3.52965e-07
1.2312e-05
-4.23591e-07
1.29985e-05
-5.02762e-07
1.36867e-05
-5.90894e-07
1.43763e-05
-6.88382e-07
1.50669e-05
-7.95592e-07
1.57583e-05
-9.12865e-07
1.64501e-05
-1.04051e-06
1.71424e-05
-1.17881e-06
1.7835e-05
-1.32802e-06
1.8528e-05
-1.48834e-06
1.92218e-05
-1.65995e-06
1.99165e-05
-1.84301e-06
2.06126e-05
-2.03763e-06
2.13109e-05
-2.24389e-06
2.20121e-05
-2.46183e-06
2.27171e-05
-2.69147e-06
2.34272e-05
-2.9328e-06
2.41438e-05
-3.18577e-06
2.48685e-05
-3.45031e-06
2.56032e-05
-3.72633e-06
2.63499e-05
-4.01368e-06
2.71113e-05
-4.31223e-06
2.78899e-05
-4.62179e-06
2.86889e-05
-4.94217e-06
2.95117e-05
-5.27313e-06
3.0362e-05
-5.61442e-06
3.1244e-05
-5.96575e-06
3.21624e-05
-6.3268e-06
3.31221e-05
-6.6972e-06
3.41286e-05
-7.07657e-06
3.51878e-05
-7.46443e-06
3.63059e-05
-7.86029e-06
3.74897e-05
-8.26356e-06
3.87464e-05
-8.67361e-06
4.00832e-05
-9.0897e-06
4.1508e-05
-9.51103e-06
4.30284e-05
-9.93668e-06
4.46523e-05
-1.03657e-05
4.63871e-05
-1.07969e-05
4.82401e-05
-1.12291e-05
5.02176e-05
-1.1661e-05
5.2325e-05
-1.20912e-05
5.45664e-05
-1.25184e-05
5.69441e-05
-1.29408e-05
5.9458e-05
-1.3357e-05
6.21056e-05
-1.37654e-05
6.48812e-05
-1.41644e-05
6.77756e-05
-1.45525e-05
7.07756e-05
-1.49284e-05
7.38638e-05
-1.52906e-05
7.70183e-05
-1.56382e-05
8.02126e-05
-1.59703e-05
8.34154e-05
-1.62864e-05
8.65915e-05
-1.65864e-05
8.97014e-05
-1.68703e-05
9.27026e-05
-1.71391e-05
9.55502e-05
-1.73939e-05
9.81983e-05
-1.76365e-05
0.000100601
-1.78695e-05
0.000102714
-1.80958e-05
0.000104497
-1.83189e-05
0.000105915
-1.8543e-05
0.000106938
-1.87726e-05
0.000107546
-1.90124e-05
0.000107727
-1.92672e-05
0.000107478
-1.9542e-05
0.000106808
-1.98411e-05
0.000105731
-2.01688e-05
0.000104271
-2.05282e-05
0.000102455
-2.09221e-05
0.000100313
-2.1352e-05
9.78741e-05
-2.18186e-05
9.51622e-05
-2.23216e-05
9.21947e-05
-2.28598e-05
8.89793e-05
-2.34312e-05
8.55123e-05
-2.40331e-05
8.17787e-05
-2.46624e-05
7.77517e-05
-2.53159e-05
7.33954e-05
-2.599e-05
6.86664e-05
6.35173e-05
-2.66813e-05
9.11871e-10
2.77082e-07
3.30386e-09
8.33544e-07
6.83885e-09
1.40095e-06
1.11577e-08
1.97905e-06
1.58794e-08
2.56755e-06
2.06025e-08
3.16613e-06
2.49061e-08
3.77444e-06
2.83512e-08
4.39208e-06
3.04823e-08
5.01863e-06
3.08295e-08
5.65366e-06
2.89102e-08
6.29669e-06
2.42314e-08
6.94721e-06
1.62918e-08
7.60472e-06
4.5849e-09
8.26867e-06
-1.13991e-08
8.93852e-06
-3.21699e-08
9.61372e-06
-5.82344e-08
1.02937e-05
-9.0094e-08
1.09779e-05
-1.28241e-07
1.16658e-05
-1.73156e-07
1.23569e-05
-2.25305e-07
1.30506e-05
-2.85136e-07
1.37466e-05
-3.53075e-07
1.44443e-05
-4.29527e-07
1.51434e-05
-5.14869e-07
1.58436e-05
-6.09449e-07
1.65447e-05
-7.13586e-07
1.72465e-05
-8.27564e-07
1.79489e-05
-9.51635e-07
1.86521e-05
-1.08601e-06
1.93561e-05
-1.23087e-06
2.00613e-05
-1.38636e-06
2.07681e-05
-1.55257e-06
2.14771e-05
-1.72958e-06
2.21891e-05
-1.91739e-06
2.29049e-05
-2.116e-06
2.36258e-05
-2.32536e-06
2.43532e-05
-2.54538e-06
2.50885e-05
-2.77592e-06
2.58337e-05
-3.01683e-06
2.65908e-05
-3.2679e-06
2.73623e-05
-3.52889e-06
2.81509e-05
-3.79953e-06
2.89595e-05
-4.07951e-06
2.97916e-05
-4.36847e-06
3.06509e-05
-4.666e-06
3.15416e-05
-4.97167e-06
3.24681e-05
-5.28499e-06
3.34354e-05
-5.60541e-06
3.4449e-05
-5.93231e-06
3.55147e-05
-6.26502e-06
3.66386e-05
-6.60281e-06
3.78275e-05
-6.94483e-06
3.90884e-05
-7.29019e-06
4.04286e-05
-7.63788e-06
4.18557e-05
-7.98681e-06
4.33774e-05
-8.33578e-06
4.50013e-05
-8.6835e-06
4.67349e-05
-9.0286e-06
4.85852e-05
-9.36962e-06
5.05586e-05
-9.70501e-06
5.26604e-05
-1.00332e-05
5.48946e-05
-1.03526e-05
5.72634e-05
-1.06615e-05
5.97669e-05
-1.09584e-05
6.24025e-05
-1.12418e-05
6.51646e-05
-1.15104e-05
6.80441e-05
-1.17628e-05
7.1028e-05
-1.19982e-05
7.40992e-05
-1.22157e-05
7.72359e-05
-1.24152e-05
8.0412e-05
-1.25965e-05
8.35967e-05
-1.27601e-05
8.67551e-05
-1.29071e-05
8.98483e-05
-1.30387e-05
9.28343e-05
-1.31571e-05
9.56686e-05
-1.32648e-05
9.8306e-05
-1.3365e-05
0.000100701
-1.34613e-05
0.00010281
-1.35578e-05
0.000104594
-1.36592e-05
0.000106016
-1.377e-05
0.000107049
-1.38953e-05
0.000107671
-1.40398e-05
0.000107871
-1.42082e-05
0.000107647
-1.44046e-05
0.000107004
-1.46326e-05
0.000105959
-1.48949e-05
0.000104533
-1.51934e-05
0.000102753
-1.5529e-05
0.000100649
-1.59016e-05
9.82468e-05
-1.63104e-05
9.5571e-05
-1.67537e-05
9.2638e-05
-1.72291e-05
8.94547e-05
-1.77341e-05
8.60174e-05
-1.82659e-05
8.23104e-05
-1.88216e-05
7.83075e-05
-1.93988e-05
7.39726e-05
-1.99951e-05
6.92627e-05
6.41309e-05
-2.06088e-05
1.30953e-09
2.75772e-07
4.89287e-09
8.29961e-07
1.04239e-08
1.39542e-06
1.75543e-08
1.97192e-06
2.59132e-08
2.55919e-06
3.51091e-08
3.15694e-06
4.47301e-08
3.76482e-06
5.43456e-08
4.38246e-06
6.35076e-08
5.00947e-06
7.17526e-08
5.64542e-06
7.86034e-08
6.28984e-06
8.35713e-08
6.94224e-06
8.61578e-08
7.60213e-06
8.5858e-08
8.26897e-06
8.21626e-08
8.94222e-06
7.45608e-08
9.62132e-06
6.25433e-08
1.03057e-05
4.56055e-08
1.09949e-05
2.32502e-08
1.16882e-05
-5.00868e-09
1.23851e-05
-3.96434e-08
1.30853e-05
-8.1109e-08
1.3788e-05
-1.2984e-07
1.4493e-05
-1.86247e-07
1.51998e-05
-2.50716e-07
1.59081e-05
-3.23601e-07
1.66176e-05
-4.05227e-07
1.73281e-05
-4.95882e-07
1.80396e-05
-5.9582e-07
1.8752e-05
-7.05255e-07
1.94656e-05
-8.24361e-07
2.01804e-05
-9.53273e-07
2.0897e-05
-1.09208e-06
2.16159e-05
-1.24083e-06
2.23378e-05
-1.39953e-06
2.30636e-05
-1.56813e-06
2.37944e-05
-1.74655e-06
2.45316e-05
-1.93465e-06
2.52766e-05
-2.13226e-06
2.60313e-05
-2.33916e-06
2.67977e-05
-2.55507e-06
2.75783e-05
-2.77968e-06
2.83755e-05
-3.01262e-06
2.91925e-05
-3.25348e-06
3.00325e-05
-3.50177e-06
3.08992e-05
-3.75698e-06
3.17968e-05
-4.01852e-06
3.27296e-05
-4.28573e-06
3.37027e-05
-4.5579e-06
3.47212e-05
-4.83423e-06
3.5791e-05
-5.11384e-06
3.69182e-05
-5.39577e-06
3.81094e-05
-5.67897e-06
3.93716e-05
-5.96228e-06
4.07119e-05
-6.24445e-06
4.21379e-05
-6.52413e-06
4.3657e-05
-6.79986e-06
4.5277e-05
-7.0701e-06
4.70051e-05
-7.33321e-06
4.88483e-05
-7.5875e-06
5.08129e-05
-7.83121e-06
5.29041e-05
-8.06258e-06
5.5126e-05
-8.27987e-06
5.74807e-05
-8.48137e-06
5.99684e-05
-8.6655e-06
6.25866e-05
-8.83082e-06
6.53299e-05
-8.97612e-06
6.81894e-05
-9.10046e-06
7.11524e-05
-9.20326e-06
7.4202e-05
-9.28432e-06
7.7317e-05
-9.34392e-06
8.04716e-05
-9.38283e-06
8.36357e-05
-9.40242e-06
8.67747e-05
-9.40463e-06
8.98505e-05
-9.39203e-06
9.28217e-05
-9.36778e-06
9.56444e-05
-9.33566e-06
9.82739e-05
-9.29999e-06
0.000100665
-9.26553e-06
0.000102776
-9.23744e-06
0.000104566
-9.22107e-06
0.000106
-9.22183e-06
0.00010705
-9.24498e-06
0.000107694
-9.29543e-06
0.000107922
-9.37753e-06
0.000107729
-9.49486e-06
0.000107121
-9.65011e-06
0.000106114
-9.84488e-06
0.000104728
-1.00797e-05
0.000102988
-1.03541e-05
0.000100923
-1.06664e-05
9.85591e-05
-1.10144e-05
9.5919e-05
-1.13953e-05
9.30188e-05
-1.18057e-05
8.98652e-05
-1.22426e-05
8.64543e-05
-1.27031e-05
8.27709e-05
-1.31846e-05
7.8789e-05
-1.36853e-05
7.44733e-05
-1.42042e-05
6.97816e-05
6.46676e-05
-1.47408e-05
1.66874e-09
2.74104e-07
6.33084e-09
8.25299e-07
1.36728e-08
1.38808e-06
2.33585e-08
1.96223e-06
3.50299e-08
2.54752e-06
4.8307e-08
3.14366e-06
6.27898e-08
3.75033e-06
7.80584e-08
4.36719e-06
9.36753e-08
4.99385e-06
1.09186e-07
5.62991e-06
1.24123e-07
6.2749e-06
1.38003e-07
6.92836e-06
1.50335e-07
7.5898e-06
1.60619e-07
8.25869e-06
1.68349e-07
8.93449e-06
1.73017e-07
9.61665e-06
1.74116e-07
1.03046e-05
1.7114e-07
1.09978e-05
1.6359e-07
1.16957e-05
1.5098e-07
1.23978e-05
1.32832e-07
1.31034e-05
1.08688e-07
1.38122e-05
7.81091e-08
1.45236e-05
4.06786e-08
1.52372e-05
-3.99298e-09
1.59527e-05
-5.62659e-08
1.66698e-05
-1.16468e-07
1.73883e-05
-1.84892e-07
1.8108e-05
-2.61791e-07
1.88289e-05
-3.47381e-07
1.95512e-05
-4.41833e-07
2.02749e-05
-5.45274e-07
2.10005e-05
-6.57786e-07
2.17284e-05
-7.79401e-07
2.24594e-05
-9.10103e-07
2.31943e-05
-1.04983e-06
2.39342e-05
-1.19846e-06
2.46802e-05
-1.35583e-06
2.5434e-05
-1.52171e-06
2.61972e-05
-1.69582e-06
2.69719e-05
-1.87785e-06
2.77603e-05
-2.06739e-06
2.85651e-05
-2.26399e-06
2.93891e-05
-2.46715e-06
3.02356e-05
-2.67629e-06
3.11084e-05
-2.89077e-06
3.20113e-05
-3.10986e-06
3.29487e-05
-3.33277e-06
3.39256e-05
-3.55863e-06
3.49471e-05
-3.78647e-06
3.60188e-05
-4.01523e-06
3.7147e-05
-4.24374e-06
3.8338e-05
-4.47075e-06
3.95986e-05
-4.69488e-06
4.0936e-05
-4.91465e-06
4.23576e-05
-5.12848e-06
4.38709e-05
-5.33466e-06
4.54832e-05
-5.53143e-06
4.72019e-05
-5.7169e-06
4.90338e-05
-5.88918e-06
5.09852e-05
-6.04631e-06
5.30613e-05
-6.18636e-06
5.52661e-05
-6.30745e-06
5.76018e-05
-6.4078e-06
6.00688e-05
-6.48579e-06
6.26646e-05
-6.54006e-06
6.53842e-05
-6.56952e-06
6.82189e-05
-6.57346e-06
7.11563e-05
-6.55163e-06
7.41801e-05
-6.50427e-06
7.72696e-05
-6.43224e-06
8.03996e-05
-6.33699e-06
8.35404e-05
-6.22067e-06
8.66584e-05
-6.08613e-06
8.9716e-05
-5.93691e-06
9.26724e-05
-5.77722e-06
9.54847e-05
-5.6119e-06
9.81086e-05
-5.44634e-06
0.0001005
-5.28633e-06
0.000102616
-5.13793e-06
0.000104417
-5.00729e-06
0.000105869
-4.90038e-06
0.000106943
-4.82285e-06
0.000107617
-4.7797e-06
0.000107878
-4.77511e-06
0.000107724
-4.81221e-06
0.000107158
-4.89293e-06
0.000106195
-5.01793e-06
0.000104853
-5.18659e-06
0.000103157
-5.39711e-06
0.000101134
-5.6467e-06
9.88087e-05
-5.93184e-06
9.62042e-05
-6.24858e-06
9.33356e-05
-6.59297e-06
9.02096e-05
-6.96132e-06
8.68226e-05
-7.35059e-06
8.31601e-05
-7.75861e-06
7.9197e-05
-8.18424e-06
7.48989e-05
-8.62738e-06
7.02247e-05
6.51292e-05
-9.08899e-06
1.9895e-09
2.72114e-07
7.61724e-09
8.19671e-07
1.65837e-08
1.37911e-06
2.85669e-08
1.95025e-06
4.32227e-08
2.53287e-06
6.01853e-08
3.1267e-06
7.90682e-08
3.73145e-06
9.9465e-08
4.3468e-06
1.20951e-07
4.97237e-06
1.43083e-07
5.60777e-06
1.65405e-07
6.25258e-06
1.87445e-07
6.90632e-06
2.08721e-07
7.56852e-06
2.28741e-07
8.23867e-06
2.47006e-07
8.91622e-06
2.63015e-07
9.60064e-06
2.76263e-07
1.02914e-05
2.86249e-07
1.09878e-05
2.92477e-07
1.16895e-05
2.9446e-07
1.23958e-05
2.91721e-07
1.31061e-05
2.83801e-07
1.38201e-05
2.70258e-07
1.45371e-05
2.50674e-07
1.52568e-05
2.24657e-07
1.59788e-05
1.91843e-07
1.67027e-05
1.51903e-07
1.74283e-05
1.04541e-07
1.81554e-05
4.9504e-08
1.8884e-05
-1.34229e-08
1.96141e-05
-8.44079e-08
2.03459e-05
-1.63573e-07
2.10796e-05
-2.50991e-07
2.18158e-05
-3.46682e-07
2.25551e-05
-4.50616e-07
2.32983e-05
-5.62704e-07
2.40463e-05
-6.82804e-07
2.48003e-05
-8.10713e-07
2.55619e-05
-9.46169e-07
2.63326e-05
-1.08885e-06
2.71145e-05
-1.23837e-06
2.79098e-05
-1.39426e-06
2.87209e-05
-1.55602e-06
2.95508e-05
-1.72305e-06
3.04027e-05
-1.89466e-06
3.128e-05
-2.07013e-06
3.21867e-05
-2.2486e-06
3.31272e-05
-2.42916e-06
3.41061e-05
-2.61079e-06
3.51287e-05
-2.79237e-06
3.62004e-05
-2.97267e-06
3.73273e-05
-3.15036e-06
3.85157e-05
-3.32398e-06
3.97722e-05
-3.49196e-06
4.1104e-05
-3.65262e-06
4.25183e-05
-3.80416e-06
4.40224e-05
-3.94466e-06
4.56237e-05
-4.07213e-06
4.73293e-05
-4.1845e-06
4.91462e-05
-4.27965e-06
5.10803e-05
-4.35545e-06
5.31371e-05
-4.40981e-06
5.53204e-05
-4.44072e-06
5.76327e-05
-4.44631e-06
6.00744e-05
-4.42495e-06
6.26433e-05
-4.37527e-06
6.53345e-05
-4.29631e-06
6.81399e-05
-4.18754e-06
7.10476e-05
-4.04897e-06
7.40416e-05
-3.88124e-06
7.71019e-05
-3.68568e-06
8.0204e-05
-3.46432e-06
8.33191e-05
-3.22002e-06
8.64141e-05
-2.95638e-06
8.94524e-05
-2.67783e-06
9.23939e-05
-2.38949e-06
9.51964e-05
-2.09717e-06
9.78163e-05
-1.80721e-06
0.00010021
-1.52632e-06
0.000102335
-1.26141e-06
0.000104152
-1.01935e-06
0.000105627
-8.06718e-07
0.00010673
-6.29502e-07
0.000107439
-4.92866e-07
0.000107742
-4.00882e-07
0.000107632
-3.56333e-07
0.000107114
-3.6058e-07
0.000106199
-4.1352e-07
0.000104906
-5.13612e-07
0.000103257
-6.58023e-07
0.000101278
-8.42877e-07
9.89935e-05
-1.06361e-06
9.64249e-05
-1.31536e-06
9.35873e-05
-1.59345e-06
9.04877e-05
-1.89376e-06
8.71229e-05
-2.21311e-06
8.34795e-05
-2.54953e-06
7.95334e-05
-2.90242e-06
7.52518e-05
-3.27258e-06
7.05949e-05
6.55187e-05
-3.66208e-06
2.27207e-09
2.69842e-07
8.75301e-09
8.1319e-07
1.91584e-08
1.36871e-06
3.31818e-08
1.93623e-06
5.04946e-08
2.51555e-06
7.07466e-08
3.10645e-06
9.35668e-08
3.70863e-06
1.18564e-07
4.3218e-06
1.45329e-07
4.9456e-06
1.73433e-07
5.57967e-06
2.02433e-07
6.22358e-06
2.31871e-07
6.87689e-06
2.61277e-07
7.53912e-06
2.9017e-07
8.20977e-06
3.18061e-07
8.88833e-06
3.44458e-07
9.57425e-06
3.68865e-07
1.0267e-05
3.90787e-07
1.09659e-05
4.09732e-07
1.16705e-05
4.25218e-07
1.23803e-05
4.36771e-07
1.30946e-05
4.43934e-07
1.38129e-05
4.46267e-07
1.45348e-05
4.4335e-07
1.52597e-05
4.34791e-07
1.59873e-05
4.20227e-07