/*--------------------------------*- C++ -*----------------------------------*\
| =========                 |                                                 |
| \\      /  F ield         | OpenFOAM: The Open Source CFD Toolbox           |
|  \\    /   O peration     | Version:  2406                                  |
|   \\  /    A nd           | Website:  www.openfoam.com                      |
|    \\/     M anipulation  |                                                 |
\*---------------------------------------------------------------------------*/
FoamFile
{
    version     2.0;
    format      ascii;
    arch        "LSB;label=32;scalar=64";
    class       volVectorField;
    location    "10";
    object      U;
}
// * * * * * * * * * * * * * * * * * * * * * * * * * * * * * * * * * * * * * //

dimensions      [0 1 -1 0 0 0 0];

internalField   nonuniform List<vector> 
40000
(
(-1.72712e-06 0.0027079 0)
(-1.16537e-05 0.00799241 0)
(-3.4856e-05 0.0131857 0)
(-7.13699e-05 0.0182844 0)
(-0.000121455 0.0232848 0)
(-0.000185867 0.0281836 0)
(-0.000265449 0.0329775 0)
(-0.000361022 0.0376631 0)
(-0.000473407 0.0422375 0)
(-0.000603436 0.0466978 0)
(-0.00075195 0.0510412 0)
(-0.000919791 0.0552651 0)
(-0.0011078 0.0593675 0)
(-0.00131681 0.0633461 0)
(-0.00154764 0.0671994 0)
(-0.0018011 0.070926 0)
(-0.00207798 0.0745247 0)
(-0.00237906 0.0779949 0)
(-0.00270507 0.0813363 0)
(-0.00305673 0.0845491 0)
(-0.00343473 0.0876338 0)
(-0.00383973 0.0905913 0)
(-0.00427235 0.0934232 0)
(-0.00473317 0.0961315 0)
(-0.00522277 0.0987186 0)
(-0.00574165 0.101187 0)
(-0.00629031 0.103542 0)
(-0.00686923 0.105785 0)
(-0.00747884 0.107922 0)
(-0.00811957 0.109959 0)
(-0.00879184 0.1119 0)
(-0.00949603 0.113752 0)
(-0.0102326 0.115522 0)
(-0.0110018 0.117216 0)
(-0.0118043 0.118844 0)
(-0.0126404 0.120413 0)
(-0.0135106 0.121932 0)
(-0.0144155 0.123412 0)
(-0.0153557 0.124862 0)
(-0.0163319 0.126294 0)
(-0.0173449 0.127719 0)
(-0.0183956 0.129149 0)
(-0.0194849 0.130598 0)
(-0.0206141 0.13208 0)
(-0.0217843 0.133608 0)
(-0.0229971 0.135199 0)
(-0.0242541 0.136869 0)
(-0.0255571 0.138635 0)
(-0.0269079 0.140514 0)
(-0.0283088 0.142526 0)
(-0.029762 0.14469 0)
(-0.03127 0.147025 0)
(-0.0328354 0.149551 0)
(-0.034461 0.15229 0)
(-0.0361495 0.15526 0)
(-0.0379038 0.158481 0)
(-0.0397267 0.161971 0)
(-0.0416208 0.165746 0)
(-0.0435887 0.169819 0)
(-0.0456327 0.1742 0)
(-0.0477544 0.178896 0)
(-0.0499551 0.183906 0)
(-0.0522353 0.189225 0)
(-0.0545947 0.194838 0)
(-0.057032 0.200725 0)
(-0.0595444 0.206852 0)
(-0.062128 0.21318 0)
(-0.0647774 0.219656 0)
(-0.0674852 0.226217 0)
(-0.0702424 0.232787 0)
(-0.0730381 0.239282 0)
(-0.0758596 0.245606 0)
(-0.0786924 0.251656 0)
(-0.0815203 0.257321 0)
(-0.0843259 0.262485 0)
(-0.0870908 0.267033 0)
(-0.0897962 0.270848 0)
(-0.0924235 0.273822 0)
(-0.094955 0.275855 0)
(-0.097375 0.276861 0)
(-0.0996703 0.27677 0)
(-0.101831 0.275537 0)
(-0.103853 0.273138 0)
(-0.105734 0.269577 0)
(-0.107482 0.264883 0)
(-0.109106 0.259112 0)
(-0.110623 0.252342 0)
(-0.112055 0.244671 0)
(-0.113429 0.236208 0)
(-0.114771 0.227068 0)
(-0.116114 0.217365 0)
(-0.117486 0.207204 0)
(-0.118914 0.196673 0)
(-0.12042 0.185838 0)
(-0.122023 0.174742 0)
(-0.123732 0.163401 0)
(-0.125548 0.151807 0)
(-0.127467 0.139931 0)
(-0.129474 0.127727 0)
(-0.13155 0.115143 0)
(-1.33305e-06 0.00273303 0)
(-9.23546e-06 0.00806912 0)
(-2.79313e-05 0.0133158 0)
(-5.7604e-05 0.0184696 0)
(-9.86365e-05 0.023527 0)
(-0.000151822 0.0284845 0)
(-0.000218028 0.0333388 0)
(-0.000298115 0.0380866 0)
(-0.000392946 0.0427248 0)
(-0.000503403 0.0472504 0)
(-0.000630377 0.0516605 0)
(-0.000774765 0.0559525 0)
(-0.000937464 0.060124 0)
(-0.00111937 0.064173 0)
(-0.00132137 0.0680974 0)
(-0.00154433 0.0718959 0)
(-0.00178911 0.075567 0)
(-0.00205655 0.0791101 0)
(-0.00234746 0.0825246 0)
(-0.00266263 0.0858104 0)
(-0.0030028 0.088968 0)
(-0.0033687 0.0919982 0)
(-0.00376101 0.0949023 0)
(-0.00418038 0.0976821 0)
(-0.00462741 0.10034 0)
(-0.00510269 0.102879 0)
(-0.00560674 0.105301 0)
(-0.00614006 0.107613 0)
(-0.00670312 0.109816 0)
(-0.00729637 0.111918 0)
(-0.00792022 0.113923 0)
(-0.00857506 0.115837 0)
(-0.00926129 0.117667 0)
(-0.00997927 0.119422 0)
(-0.0107294 0.121108 0)
(-0.0115121 0.122734 0)
(-0.0123277 0.124309 0)
(-0.0131767 0.125844 0)
(-0.0140596 0.127348 0)
(-0.014977 0.128834 0)
(-0.0159294 0.130312 0)
(-0.0169176 0.131795 0)
(-0.0179423 0.133297 0)
(-0.0190045 0.134832 0)
(-0.0201051 0.136414 0)
(-0.0212452 0.13806 0)
(-0.0224261 0.139785 0)
(-0.0236492 0.141607 0)
(-0.024916 0.143545 0)
(-0.0262281 0.145617 0)
(-0.0275872 0.147843 0)
(-0.0289952 0.150242 0)
(-0.0304541 0.152834 0)
(-0.0319659 0.155641 0)
(-0.0335327 0.158681 0)
(-0.0351563 0.161974 0)
(-0.0368389 0.165537 0)
(-0.0385822 0.169386 0)
(-0.0403878 0.173534 0)
(-0.0422569 0.17799 0)
(-0.0441906 0.182758 0)
(-0.0461892 0.187838 0)
(-0.0482523 0.193223 0)
(-0.050379 0.198898 0)
(-0.0525673 0.204838 0)
(-0.0548142 0.211011 0)
(-0.0571155 0.217374 0)
(-0.0594659 0.223871 0)
(-0.0618584 0.230438 0)
(-0.0642849 0.236999 0)
(-0.0667355 0.243465 0)
(-0.0691991 0.249741 0)
(-0.0716631 0.255721 0)
(-0.0741138 0.261293 0)
(-0.0765368 0.266343 0)
(-0.0789169 0.270754 0)
(-0.0812391 0.274412 0)
(-0.0834888 0.27721 0)
(-0.0856527 0.279052 0)
(-0.0877191 0.279854 0)
(-0.0896794 0.279555 0)
(-0.0915278 0.278111 0)
(-0.0932627 0.275506 0)
(-0.0948871 0.271751 0)
(-0.0964085 0.26688 0)
(-0.0978392 0.260955 0)
(-0.0991961 0.254059 0)
(-0.1005 0.246293 0)
(-0.101775 0.237769 0)
(-0.103046 0.228602 0)
(-0.10434 0.218904 0)
(-0.10568 0.208776 0)
(-0.107091 0.198302 0)
(-0.108588 0.18754 0)
(-0.110184 0.176527 0)
(-0.111885 0.16527 0)
(-0.11369 0.153753 0)
(-0.115591 0.14194 0)
(-0.117574 0.12978 0)
(-0.119619 0.117214 0)
(-9.63298e-07 0.00275207 0)
(-6.87137e-06 0.00812809 0)
(-2.10796e-05 0.0134169 0)
(-4.39307e-05 0.018615 0)
(-7.59321e-05 0.0237189 0)
(-0.000117906 0.0287251 0)
(-0.000170741 0.0336303 0)
(-0.000235328 0.0384312 0)
(-0.000312571 0.0431244 0)
(-0.000403392 0.047707 0)
(-0.000508728 0.0521761 0)
(-0.000629526 0.0565288 0)
(-0.000766735 0.0607626 0)
(-0.000921305 0.0648753 0)
(-0.00109418 0.0688648 0)
(-0.00128629 0.0727295 0)
(-0.00149856 0.0764679 0)
(-0.00173189 0.0800789 0)
(-0.00198715 0.083562 0)
(-0.00226518 0.0869168 0)
(-0.00256681 0.0901436 0)
(-0.00289282 0.093243 0)
(-0.00324394 0.0962162 0)
(-0.00362088 0.0990647 0)
(-0.0040243 0.101791 0)
(-0.00445481 0.104397 0)
(-0.004913 0.106886 0)
(-0.00539939 0.109263 0)
(-0.00591447 0.111531 0)
(-0.00645871 0.113696 0)
(-0.00703252 0.115763 0)
(-0.00763629 0.117738 0)
(-0.00827039 0.119628 0)
(-0.00893516 0.121441 0)
(-0.00963093 0.123183 0)
(-0.010358 0.124865 0)
(-0.0111168 0.126494 0)
(-0.0119076 0.128082 0)
(-0.0127307 0.129638 0)
(-0.0135867 0.131174 0)
(-0.0144758 0.132702 0)
(-0.0153987 0.134235 0)
(-0.0163558 0.135786 0)
(-0.0173479 0.137369 0)
(-0.0183755 0.139 0)
(-0.0194395 0.140695 0)
(-0.0205408 0.142469 0)
(-0.0216803 0.144341 0)
(-0.022859 0.146329 0)
(-0.0240782 0.148452 0)
(-0.0253389 0.15073 0)
(-0.0266424 0.153182 0)
(-0.0279901 0.155828 0)
(-0.0293832 0.15869 0)
(-0.030823 0.161786 0)
(-0.0323108 0.165135 0)
(-0.0338477 0.168754 0)
(-0.0354347 0.17266 0)
(-0.0370724 0.176863 0)
(-0.0387613 0.181373 0)
(-0.0405015 0.186193 0)
(-0.0422925 0.191322 0)
(-0.0441334 0.196751 0)
(-0.0460226 0.202464 0)
(-0.0479576 0.208437 0)
(-0.0499352 0.214634 0)
(-0.0519512 0.221011 0)
(-0.0540005 0.227511 0)
(-0.0560767 0.234069 0)
(-0.0581726 0.240606 0)
(-0.0602797 0.247033 0)
(-0.0623884 0.253253 0)
(-0.0644885 0.25916 0)
(-0.0665689 0.264642 0)
(-0.0686179 0.269584 0)
(-0.0706239 0.27387 0)
(-0.0725755 0.277389 0)
(-0.074462 0.280035 0)
(-0.0762742 0.281714 0)
(-0.0780045 0.282348 0)
(-0.0796479 0.281877 0)
(-0.0812025 0.280265 0)
(-0.0826697 0.2775 0)
(-0.0840547 0.273596 0)
(-0.0853665 0.268595 0)
(-0.086618 0.262561 0)
(-0.0878256 0.255582 0)
(-0.0890084 0.24776 0)
(-0.0901876 0.239208 0)
(-0.0913853 0.230041 0)
(-0.0926231 0.220369 0)
(-0.093921 0.210289 0)
(-0.0952962 0.199879 0)
(-0.0967618 0.189193 0)
(-0.0983256 0.17826 0)
(-0.0999903 0.167082 0)
(-0.101752 0.155634 0)
(-0.103603 0.143877 0)
(-0.105528 0.131754 0)
(-0.107508 0.119203 0)
(-6.00878e-07 0.00276528 0)
(-4.54373e-06 0.00817001 0)
(-1.43227e-05 0.0134901 0)
(-3.0435e-05 0.018722 0)
(-5.35052e-05 0.0238624 0)
(-8.43793e-05 0.0289077 0)
(-0.00012396 0.0338545 0)
(-0.000173164 0.0386994 0)
(-0.000232928 0.0434393 0)
(-0.000304211 0.0480708 0)
(-0.000387989 0.0525911 0)
(-0.000485251 0.0569971 0)
(-0.000596994 0.0612864 0)
(-0.000724216 0.0654563 0)
(-0.000867912 0.0695049 0)
(-0.00102907 0.07343 0)
(-0.00120867 0.0772303 0)
(-0.00140766 0.0809044 0)
(-0.00162699 0.0844515 0)
(-0.00186754 0.0878711 0)
(-0.00213021 0.0911632 0)
(-0.00241582 0.0943283 0)
(-0.00272518 0.0973672 0)
(-0.00305904 0.100281 0)
(-0.0034181 0.103073 0)
(-0.00380304 0.105744 0)
(-0.00421445 0.108298 0)
(-0.00465291 0.110738 0)
(-0.00511894 0.113069 0)
(-0.00561299 0.115296 0)
(-0.0061355 0.117423 0)
(-0.00668684 0.119457 0)
(-0.00726737 0.121405 0)
(-0.00787738 0.123273 0)
(-0.00851717 0.125071 0)
(-0.00918699 0.126806 0)
(-0.00988709 0.128487 0)
(-0.0106177 0.130125 0)
(-0.0113791 0.131731 0)
(-0.0121715 0.133315 0)
(-0.0129952 0.13489 0)
(-0.0138504 0.136469 0)
(-0.0147376 0.138064 0)
(-0.015657 0.139692 0)
(-0.016609 0.141366 0)
(-0.0175942 0.143103 0)
(-0.0186129 0.144921 0)
(-0.0196658 0.146835 0)
(-0.0207534 0.148865 0)
(-0.0218764 0.15103 0)
(-0.0230353 0.15335 0)
(-0.0242309 0.155844 0)
(-0.0254638 0.158533 0)
(-0.0267346 0.161436 0)
(-0.0280439 0.164574 0)
(-0.0293921 0.167964 0)
(-0.0307796 0.171624 0)
(-0.0322064 0.175568 0)
(-0.0336726 0.179808 0)
(-0.0351777 0.184353 0)
(-0.0367209 0.189206 0)
(-0.0383013 0.194363 0)
(-0.0399171 0.199816 0)
(-0.0415662 0.205548 0)
(-0.043246 0.211533 0)
(-0.0449529 0.217734 0)
(-0.046683 0.224107 0)
(-0.0484314 0.230594 0)
(-0.0501925 0.237128 0)
(-0.0519601 0.243629 0)
(-0.0537271 0.250008 0)
(-0.0554858 0.256168 0)
(-0.0572281 0.262001 0)
(-0.0589456 0.267397 0)
(-0.0606297 0.27224 0)
(-0.062272 0.276416 0)
(-0.0638647 0.279815 0)
(-0.0654009 0.282333 0)
(-0.0668753 0.283879 0)
(-0.0682839 0.284378 0)
(-0.0696254 0.283774 0)
(-0.0709009 0.282034 0)
(-0.0721142 0.27915 0)
(-0.0732725 0.275141 0)
(-0.0743856 0.270051 0)
(-0.0754664 0.263948 0)
(-0.0765303 0.256922 0)
(-0.0775941 0.249077 0)
(-0.0786761 0.240525 0)
(-0.0797944 0.23138 0)
(-0.0809664 0.221749 0)
(-0.0822074 0.211726 0)
(-0.0835298 0.201384 0)
(-0.0849425 0.190774 0)
(-0.0864497 0.179916 0)
(-0.0880513 0.168809 0)
(-0.0897424 0.157424 0)
(-0.0915137 0.145714 0)
(-0.093352 0.133622 0)
(-0.0952409 0.121082 0)
(-2.4732e-07 0.00277294 0)
(-2.26915e-06 0.0081957 0)
(-7.71366e-06 0.0135367 0)
(-1.7224e-05 0.0187925 0)
(-3.15338e-05 0.0239596 0)
(-5.15068e-05 0.0290346 0)
(-7.80543e-05 0.0340141 0)
(-0.000112113 0.0388945 0)
(-0.000154645 0.0436727 0)
(-0.000206639 0.0483453 0)
(-0.000269105 0.0529092 0)
(-0.000343066 0.0573615 0)
(-0.00042956 0.0616993 0)
(-0.000529628 0.0659201 0)
(-0.000644311 0.0700216 0)
(-0.000774646 0.0740016 0)
(-0.000921658 0.0778583 0)
(-0.00108636 0.0815905 0)
(-0.00126973 0.0851969 0)
(-0.00147274 0.088677 0)
(-0.0016963 0.0920304 0)
(-0.00194132 0.0952575 0)
(-0.00220865 0.0983588 0)
(-0.00249908 0.101336 0)
(-0.00281337 0.10419 0)
(-0.00315222 0.106923 0)
(-0.00351629 0.109539 0)
(-0.00390616 0.112041 0)
(-0.00432238 0.114432 0)
(-0.00476543 0.116718 0)
(-0.00523573 0.118904 0)
(-0.00573366 0.120995 0)
(-0.00625954 0.122999 0)
(-0.00681365 0.124922 0)
(-0.00739622 0.126772 0)
(-0.00800745 0.128558 0)
(-0.00864749 0.13029 0)
(-0.00931649 0.131976 0)
(-0.0100146 0.133628 0)
(-0.0107418 0.135258 0)
(-0.0114983 0.136876 0)
(-0.0122841 0.138497 0)
(-0.0130994 0.140133 0)
(-0.0139442 0.1418 0)
(-0.0148187 0.143513 0)
(-0.0157229 0.145287 0)
(-0.016657 0.147141 0)
(-0.017621 0.14909 0)
(-0.0186152 0.151155 0)
(-0.0196397 0.153353 0)
(-0.0206945 0.155705 0)
(-0.0217798 0.158231 0)
(-0.0228954 0.16095 0)
(-0.0240415 0.163883 0)
(-0.0252178 0.167048 0)
(-0.0264241 0.170465 0)
(-0.0276598 0.17415 0)
(-0.0289244 0.178116 0)
(-0.0302169 0.182377 0)
(-0.0315363 0.186939 0)
(-0.0328811 0.191805 0)
(-0.0342496 0.196972 0)
(-0.0356394 0.20243 0)
(-0.0370482 0.208161 0)
(-0.0384728 0.214139 0)
(-0.0399098 0.220328 0)
(-0.0413554 0.22668 0)
(-0.0428051 0.233139 0)
(-0.0442542 0.239636 0)
(-0.0456974 0.246092 0)
(-0.0471292 0.252417 0)
(-0.0485438 0.258513 0)
(-0.0499353 0.264274 0)
(-0.0512979 0.269589 0)
(-0.0526259 0.274343 0)
(-0.0539144 0.278424 0)
(-0.0551589 0.281722 0)
(-0.0563561 0.284137 0)
(-0.0575042 0.285579 0)
(-0.0586029 0.285976 0)
(-0.0596539 0.285274 0)
(-0.060661 0.283444 0)
(-0.0616302 0.280481 0)
(-0.06257 0.276406 0)
(-0.0634908 0.271265 0)
(-0.0644049 0.26513 0)
(-0.0653262 0.258089 0)
(-0.0662693 0.250248 0)
(-0.067249 0.241718 0)
(-0.0682797 0.232611 0)
(-0.0693743 0.223032 0)
(-0.0705436 0.213072 0)
(-0.0717958 0.202799 0)
(-0.0731357 0.19226 0)
(-0.0745647 0.181472 0)
(-0.0760804 0.170428 0)
(-0.0776769 0.159096 0)
(-0.0793454 0.147428 0)
(-0.0810742 0.135362 0)
(-0.0828494 0.122832 0)
(9.31327e-08 0.00277537 0)
(-6.65469e-08 0.00820607 0)
(-1.30122e-06 0.0135582 0)
(-4.3939e-06 0.0188283 0)
(-1.01782e-05 0.024013 0)
(-1.95289e-05 0.0291088 0)
(-3.33597e-05 0.0341123 0)
(-5.26206e-05 0.03902 0)
(-7.82939e-05 0.0438285 0)
(-0.00011139 0.0485345 0)
(-0.000152945 0.0531348 0)
(-0.000204012 0.0576262 0)
(-0.000265659 0.062006 0)
(-0.000338965 0.0662713 0)
(-0.000425009 0.0704197 0)
(-0.000524869 0.0744488 0)
(-0.000639615 0.0783568 0)
(-0.000770303 0.082142 0)
(-0.000917967 0.0858031 0)
(-0.00108362 0.0893392 0)
(-0.00126823 0.0927499 0)
(-0.00147274 0.0960351 0)
(-0.00169805 0.0991953 0)
(-0.00194501 0.102232 0)
(-0.00221441 0.105145 0)
(-0.00250701 0.107938 0)
(-0.00282347 0.110613 0)
(-0.00316443 0.113174 0)
(-0.00353045 0.115624 0)
(-0.00392201 0.117967 0)
(-0.00433955 0.120209 0)
(-0.00478343 0.122356 0)
(-0.00525397 0.124413 0)
(-0.0057514 0.126389 0)
(-0.00627591 0.12829 0)
(-0.00682762 0.130125 0)
(-0.00740663 0.131904 0)
(-0.00801295 0.133636 0)
(-0.00864659 0.135332 0)
(-0.00930749 0.137004 0)
(-0.00999558 0.138663 0)
(-0.0107107 0.140322 0)
(-0.0114528 0.141995 0)
(-0.0122217 0.143697 0)
(-0.0130171 0.145443 0)
(-0.0138389 0.147249 0)
(-0.0146868 0.149132 0)
(-0.0155606 0.15111 0)
(-0.0164599 0.153201 0)
(-0.0173843 0.155424 0)
(-0.0183335 0.1578 0)
(-0.019307 0.160347 0)
(-0.0203041 0.163085 0)
(-0.0213241 0.166035 0)
(-0.0223662 0.169216 0)
(-0.0234293 0.172645 0)
(-0.0245124 0.17634 0)
(-0.025614 0.180314 0)
(-0.0267325 0.184578 0)
(-0.027866 0.18914 0)
(-0.0290124 0.194002 0)
(-0.0301694 0.199161 0)
(-0.0313343 0.204606 0)
(-0.032504 0.210319 0)
(-0.0336755 0.216274 0)
(-0.0348452 0.222433 0)
(-0.0360094 0.228751 0)
(-0.0371643 0.235168 0)
(-0.0383058 0.241618 0)
(-0.0394299 0.24802 0)
(-0.0405326 0.254286 0)
(-0.0416098 0.260317 0)
(-0.042658 0.266007 0)
(-0.0436738 0.271247 0)
(-0.0446546 0.275924 0)
(-0.0455983 0.279924 0)
(-0.046504 0.283142 0)
(-0.0473718 0.285477 0)
(-0.0482031 0.286843 0)
(-0.0490009 0.287168 0)
(-0.0497697 0.286402 0)
(-0.0505157 0.284518 0)
(-0.051247 0.281511 0)
(-0.0519727 0.277405 0)
(-0.0527036 0.272249 0)
(-0.0534513 0.266112 0)
(-0.0542279 0.259085 0)
(-0.0550456 0.251271 0)
(-0.0559158 0.242781 0)
(-0.0568491 0.233726 0)
(-0.0578541 0.224207 0)
(-0.0589375 0.214312 0)
(-0.0601033 0.204108 0)
(-0.061353 0.193635 0)
(-0.0626852 0.18291 0)
(-0.0640959 0.171921 0)
(-0.065579 0.160636 0)
(-0.0671261 0.149002 0)
(-0.0687276 0.136959 0)
(-0.0703724 0.124439 0)
(4.22283e-07 0.00277291 0)
(2.05428e-06 0.0082021 0)
(4.87171e-06 0.0135561 0)
(7.96729e-06 0.0188316 0)
(1.04154e-05 0.0240252 0)
(1.13355e-05 0.0291334 0)
(9.81712e-06 0.0341527 0)
(4.90292e-06 0.0390797 0)
(-4.40039e-06 0.0439109 0)
(-1.91191e-05 0.048643 0)
(-4.03085e-05 0.0532725 0)
(-6.90438e-05 0.0577964 0)
(-0.000106418 0.0622116 0)
(-0.000153538 0.0665152 0)
(-0.000211515 0.0707046 0)
(-0.000281461 0.0747773 0)
(-0.000364483 0.0787312 0)
(-0.000461677 0.0825644 0)
(-0.000574117 0.0862754 0)
(-0.000702857 0.0898632 0)
(-0.000848915 0.0933269 0)
(-0.00101328 0.0966664 0)
(-0.00119688 0.0998819 0)
(-0.00140062 0.102974 0)
(-0.00162532 0.105944 0)
(-0.00187178 0.108794 0)
(-0.00214071 0.111526 0)
(-0.00243274 0.114143 0)
(-0.00274848 0.116648 0)
(-0.00308841 0.119047 0)
(-0.00345298 0.121343 0)
(-0.00384254 0.123543 0)
(-0.00425739 0.125652 0)
(-0.00469773 0.127678 0)
(-0.0051637 0.129628 0)
(-0.00565538 0.13151 0)
(-0.00617276 0.133334 0)
(-0.00671577 0.135109 0)
(-0.00728429 0.136847 0)
(-0.00787813 0.138557 0)
(-0.00849704 0.140253 0)
(-0.0091407 0.141947 0)
(-0.00980877 0.143653 0)
(-0.0105008 0.145386 0)
(-0.0112164 0.14716 0)
(-0.0119549 0.148992 0)
(-0.0127158 0.150899 0)
(-0.0134985 0.152899 0)
(-0.0143021 0.155009 0)
(-0.0151258 0.157249 0)
(-0.0159687 0.159639 0)
(-0.0168298 0.162197 0)
(-0.0177078 0.164945 0)
(-0.0186014 0.167901 0)
(-0.0195091 0.171085 0)
(-0.0204293 0.174514 0)
(-0.02136 0.178205 0)
(-0.0222991 0.182171 0)
(-0.0232443 0.186424 0)
(-0.0241932 0.19097 0)
(-0.0251428 0.195812 0)
(-0.0260904 0.200946 0)
(-0.0270327 0.206361 0)
(-0.0279664 0.21204 0)
(-0.0288882 0.217956 0)
(-0.0297946 0.224072 0)
(-0.0306821 0.23034 0)
(-0.0315474 0.236705 0)
(-0.0323872 0.243098 0)
(-0.0331987 0.249439 0)
(-0.0339791 0.255641 0)
(-0.0347264 0.261606 0)
(-0.0354391 0.267229 0)
(-0.0361163 0.2724 0)
(-0.0367581 0.277009 0)
(-0.0373655 0.280945 0)
(-0.0379406 0.284101 0)
(-0.0384869 0.286379 0)
(-0.0390088 0.287694 0)
(-0.0395123 0.287977 0)
(-0.0400046 0.287178 0)
(-0.0404941 0.285271 0)
(-0.0409901 0.282254 0)
(-0.041503 0.27815 0)
(-0.0420435 0.273008 0)
(-0.0426221 0.266898 0)
(-0.0432494 0.259909 0)
(-0.043935 0.252143 0)
(-0.0446871 0.24371 0)
(-0.0455125 0.234716 0)
(-0.0464159 0.225263 0)
(-0.0473999 0.215435 0)
(-0.048465 0.205296 0)
(-0.0496095 0.194885 0)
(-0.0508297 0.184216 0)
(-0.0521206 0.173276 0)
(-0.0534756 0.16203 0)
(-0.0548875 0.150427 0)
(-0.0563486 0.138404 0)
(-0.0578513 0.125895 0)
(7.34159e-07 0.00276592 0)
(4.0753e-06 0.00818483 0)
(1.0766e-05 0.0135322 0)
(1.97824e-05 0.0188047 0)
(3.01177e-05 0.023999 0)
(4.08917e-05 0.0291117 0)
(5.12036e-05 0.0341391 0)
(6.00962e-05 0.0390779 0)
(6.65687e-05 0.0439246 0)
(6.95864e-05 0.0486756 0)
(6.80846e-05 0.0533277 0)
(6.0973e-05 0.0578774 0)
(4.71403e-05 0.0623218 0)
(2.54599e-05 0.0666577 0)
(-5.20416e-06 0.0708823 0)
(-4.59915e-05 0.074993 0)
(-9.80387e-05 0.0789875 0)
(-0.000162473 0.0828638 0)
(-0.000240405 0.08662 0)
(-0.000332922 0.090255 0)
(-0.000441083 0.0937676 0)
(-0.000565909 0.0971575 0)
(-0.000708378 0.100425 0)
(-0.000869419 0.103569 0)
(-0.0010499 0.106592 0)
(-0.00125065 0.109496 0)
(-0.00147239 0.112281 0)
(-0.00171581 0.114952 0)
(-0.0019815 0.117511 0)
(-0.00226998 0.119962 0)
(-0.0025817 0.12231 0)
(-0.002917 0.124561 0)
(-0.00327616 0.12672 0)
(-0.00365936 0.128793 0)
(-0.00406669 0.13079 0)
(-0.00449817 0.132717 0)
(-0.00495371 0.134584 0)
(-0.00543317 0.1364 0)
(-0.00593629 0.138176 0)
(-0.00646275 0.139922 0)
(-0.00701214 0.141652 0)
(-0.00758397 0.143378 0)
(-0.00817767 0.145113 0)
(-0.00879257 0.146872 0)
(-0.00942793 0.14867 0)
(-0.0100829 0.150523 0)
(-0.0107566 0.152448 0)
(-0.0114479 0.154462 0)
(-0.0121556 0.156585 0)
(-0.0128786 0.158834 0)
(-0.0136153 0.16123 0)
(-0.0143642 0.163791 0)
(-0.0151235 0.166538 0)
(-0.0158913 0.169489 0)
(-0.0166655 0.172665 0)
(-0.0174437 0.176081 0)
(-0.0182233 0.179755 0)
(-0.0190016 0.1837 0)
(-0.0197757 0.187927 0)
(-0.0205422 0.192443 0)
(-0.021298 0.19725 0)
(-0.0220394 0.202344 0)
(-0.022763 0.207715 0)
(-0.0234651 0.213345 0)
(-0.024142 0.219207 0)
(-0.0247905 0.225265 0)
(-0.0254072 0.231473 0)
(-0.0259893 0.237775 0)
(-0.0265343 0.244101 0)
(-0.0270403 0.250375 0)
(-0.0275062 0.25651 0)
(-0.0279314 0.262407 0)
(-0.0283166 0.267965 0)
(-0.0286632 0.273075 0)
(-0.028974 0.277627 0)
(-0.0292527 0.281511 0)
(-0.0295045 0.284622 0)
(-0.0297357 0.286864 0)
(-0.0299539 0.288153 0)
(-0.0301677 0.28842 0)
(-0.0303869 0.287617 0)
(-0.0306217 0.285717 0)
(-0.030883 0.28272 0)
(-0.0311817 0.278647 0)
(-0.0315285 0.273547 0)
(-0.0319333 0.267488 0)
(-0.0324047 0.260559 0)
(-0.03295 0.252859 0)
(-0.0335744 0.244496 0)
(-0.0342812 0.235574 0)
(-0.0350715 0.226192 0)
(-0.035944 0.216431 0)
(-0.0368961 0.206355 0)
(-0.0379231 0.196001 0)
(-0.0390195 0.185381 0)
(-0.0401791 0.174483 0)
(-0.0413954 0.163271 0)
(-0.0426625 0.151695 0)
(-0.0439747 0.139692 0)
(-0.0453274 0.127197 0)
(1.02822e-06 0.00275478 0)
(5.98657e-06 0.00815532 0)
(1.63483e-05 0.0134881 0)
(3.09843e-05 0.0187499 0)
(4.88161e-05 0.0239374 0)
(6.89704e-05 0.029047 0)
(9.05608e-05 0.0340754 0)
(0.000112636 0.0390189 0)
(0.000134197 0.0438742 0)
(0.000154206 0.0486376 0)
(0.000171596 0.0533057 0)
(0.00018527 0.0578751 0)
(0.000194105 0.0623425 0)
(0.000196962 0.0667048 0)
(0.000192688 0.0709591 0)
(0.000180125 0.0751025 0)
(0.000158113 0.0791325 0)
(0.000125501 0.0830468 0)
(8.11495e-05 0.0868436 0)
(2.39419e-05 0.0905213 0)
(-4.72111e-05 0.0940786 0)
(-0.000133363 0.0975149 0)
(-0.000235525 0.10083 0)
(-0.000354657 0.104023 0)
(-0.000491665 0.107096 0)
(-0.000647388 0.11005 0)
(-0.000822599 0.112887 0)
(-0.00101799 0.115608 0)
(-0.00123419 0.118218 0)
(-0.00147172 0.120719 0)
(-0.00173102 0.123117 0)
(-0.00201244 0.125416 0)
(-0.00231624 0.127622 0)
(-0.00264257 0.129742 0)
(-0.00299149 0.131782 0)
(-0.00336296 0.133752 0)
(-0.00375683 0.135659 0)
(-0.00417285 0.137513 0)
(-0.00461067 0.139325 0)
(-0.00506984 0.141105 0)
(-0.00554979 0.142865 0)
(-0.00604987 0.144619 0)
(-0.00656928 0.146379 0)
(-0.00710714 0.14816 0)
(-0.00766245 0.149977 0)
(-0.00823407 0.151846 0)
(-0.00882074 0.153784 0)
(-0.00942106 0.155808 0)
(-0.0100335 0.157936 0)
(-0.0106563 0.160188 0)
(-0.0112875 0.162581 0)
(-0.0119252 0.165137 0)
(-0.0125669 0.167873 0)
(-0.0132103 0.170811 0)
(-0.0138525 0.173967 0)
(-0.0144907 0.177359 0)
(-0.0151215 0.181005 0)
(-0.0157417 0.184916 0)
(-0.0163476 0.189105 0)
(-0.0169354 0.193577 0)
(-0.0175012 0.198334 0)
(-0.018041 0.203375 0)
(-0.0185508 0.208687 0)
(-0.0190266 0.214254 0)
(-0.0194647 0.22005 0)
(-0.0198617 0.226038 0)
(-0.0202146 0.232174 0)
(-0.0205209 0.238402 0)
(-0.0207788 0.244654 0)
(-0.0209874 0.250855 0)
(-0.0211469 0.256919 0)
(-0.0212583 0.262749 0)
(-0.0213242 0.268244 0)
(-0.0213483 0.273298 0)
(-0.0213356 0.277801 0)
(-0.0212927 0.281646 0)
(-0.0212274 0.284728 0)
(-0.0211489 0.286953 0)
(-0.0210676 0.288237 0)
(-0.0209947 0.288513 0)
(-0.0209421 0.287731 0)
(-0.020922 0.285866 0)
(-0.0209468 0.282915 0)
(-0.021028 0.2789 0)
(-0.0211761 0.273867 0)
(-0.0214004 0.267883 0)
(-0.021708 0.261033 0)
(-0.0221039 0.253415 0)
(-0.0225907 0.245134 0)
(-0.0231683 0.236291 0)
(-0.0238345 0.226984 0)
(-0.0245848 0.217292 0)
(-0.0254133 0.207277 0)
(-0.026313 0.196976 0)
(-0.0272766 0.186401 0)
(-0.0282969 0.175539 0)
(-0.0293676 0.164357 0)
(-0.0304839 0.152805 0)
(-0.0316423 0.140822 0)
(-0.0328409 0.128343 0)
(1.3031e-06 0.00273987 0)
(7.77865e-06 0.00811469 0)
(2.15907e-05 0.0134257 0)
(4.15159e-05 0.0186696 0)
(6.64145e-05 0.0238433 0)
(9.54255e-05 0.0289431 0)
(0.000127683 0.0339656 0)
(0.000162247 0.0389074 0)
(0.000198125 0.0437648 0)
(0.000234288 0.0485342 0)
(0.000269669 0.0532122 0)
(0.000303171 0.0577953 0)
(0.000333672 0.0622801 0)
(0.000360024 0.0666633 0)
(0.000381067 0.0709417 0)
(0.00039563 0.0751125 0)
(0.00040254 0.079173 0)
(0.000400627 0.0831207 0)
(0.000388732 0.0869534 0)
(0.000365715 0.0906694 0)
(0.000330464 0.0942672 0)
(0.000281898 0.0977458 0)
(0.00021898 0.101105 0)
(0.000140721 0.104344 0)
(4.61921e-05 0.107463 0)
(-6.54743e-05 0.110464 0)
(-0.000195073 0.113348 0)
(-0.000343319 0.116118 0)
(-0.000510846 0.118775 0)
(-0.000698195 0.121324 0)
(-0.000905811 0.123769 0)
(-0.00113404 0.126114 0)
(-0.00138312 0.128365 0)
(-0.00165319 0.130528 0)
(-0.00194426 0.132611 0)
(-0.00225624 0.13462 0)
(-0.00258893 0.136565 0)
(-0.00294199 0.138455 0)
(-0.00331497 0.1403 0)
(-0.00370729 0.142111 0)
(-0.00411826 0.143899 0)
(-0.00454703 0.145677 0)
(-0.00499265 0.147459 0)
(-0.00545401 0.149259 0)
(-0.00592985 0.151091 0)
(-0.00641877 0.152971 0)
(-0.0069192 0.154916 0)
(-0.0074294 0.156944 0)
(-0.00794744 0.159072 0)
(-0.00847119 0.161319 0)
(-0.00899833 0.163703 0)
(-0.00952628 0.166245 0)
(-0.0100523 0.168963 0)
(-0.0105732 0.171876 0)
(-0.0110859 0.175004 0)
(-0.0115867 0.178362 0)
(-0.0120719 0.181968 0)
(-0.0125374 0.185834 0)
(-0.0129791 0.189972 0)
(-0.0133925 0.194388 0)
(-0.0137732 0.199084 0)
(-0.0141167 0.204057 0)
(-0.0144186 0.209298 0)
(-0.0146747 0.21479 0)
(-0.0148809 0.220507 0)
(-0.0150339 0.226414 0)
(-0.0151307 0.232467 0)
(-0.0151694 0.238612 0)
(-0.0151486 0.244783 0)
(-0.0150686 0.250905 0)
(-0.0149303 0.256894 0)
(-0.0147366 0.262656 0)
(-0.0144916 0.26809 0)
(-0.0142011 0.273093 0)
(-0.0138723 0.277555 0)
(-0.0135143 0.281372 0)
(-0.0131375 0.28444 0)
(-0.0127538 0.286664 0)
(-0.0123759 0.287963 0)
(-0.0120178 0.288268 0)
(-0.0116934 0.287531 0)
(-0.0114169 0.285724 0)
(-0.0112018 0.282844 0)
(-0.0110603 0.27891 0)
(-0.0110033 0.273967 0)
(-0.0110392 0.268078 0)
(-0.011174 0.261325 0)
(-0.0114108 0.253805 0)
(-0.0117496 0.245617 0)
(-0.0121876 0.236862 0)
(-0.0127195 0.227634 0)
(-0.0133379 0.218013 0)
(-0.0140341 0.208057 0)
(-0.0147989 0.197806 0)
(-0.0156231 0.187272 0)
(-0.0164989 0.176443 0)
(-0.0174201 0.165288 0)
(-0.0183827 0.153759 0)
(-0.0193854 0.141796 0)
(-0.0204289 0.129338 0)
(1.5577e-06 0.00272157 0)
(9.44387e-06 0.00806402 0)
(2.64698e-05 0.0133467 0)
(5.13297e-05 0.0185663 0)
(8.28327e-05 0.0237197 0)
(0.000120135 0.0288034 0)
(0.000162396 0.033814 0)
(0.000208693 0.0387479 0)
(0.000258049 0.0436014 0)
(0.000309444 0.0483711 0)
(0.000361824 0.0530533 0)
(0.000414098 0.0576444 0)
(0.000465147 0.062141 0)
(0.000513828 0.0665397 0)
(0.000558979 0.0708371 0)
(0.000599425 0.0750303 0)
(0.000633986 0.0791164 0)
(0.00066148 0.0830927 0)
(0.000680738 0.0869568 0)
(0.000690604 0.0907067 0)
(0.000689948 0.0943408 0)
(0.000677671 0.0978578 0)
(0.000652714 0.101257 0)
(0.000614068 0.104537 0)
(0.000560781 0.1077 0)
(0.000491965 0.110745 0)
(0.000406808 0.113674 0)
(0.000304575 0.116488 0)
(0.000184621 0.119191 0)
(4.63952e-05 0.121785 0)
(-0.00011055 0.124273 0)
(-0.000286557 0.126662 0)
(-0.000481854 0.128955 0)
(-0.000696551 0.13116 0)
(-0.000930638 0.133282 0)
(-0.00118397 0.135329 0)
(-0.00145629 0.13731 0)
(-0.00174718 0.139233 0)
(-0.0020561 0.141108 0)
(-0.00238237 0.142947 0)
(-0.00272515 0.14476 0)
(-0.00308345 0.14656 0)
(-0.00345614 0.14836 0)
(-0.0038419 0.150174 0)
(-0.00423925 0.152017 0)
(-0.00464654 0.153904 0)
(-0.0050619 0.155852 0)
(-0.00548327 0.157878 0)
(-0.00590839 0.16 0)
(-0.00633474 0.162236 0)
(-0.00675958 0.164605 0)
(-0.00717991 0.167126 0)
(-0.00759245 0.169818 0)
(-0.00799367 0.172699 0)
(-0.00837974 0.175789 0)
(-0.00874656 0.179104 0)
(-0.0090898 0.18266 0)
(-0.00940485 0.186471 0)
(-0.00968693 0.190547 0)
(-0.00993113 0.194895 0)
(-0.0101324 0.199518 0)
(-0.0102859 0.204413 0)
(-0.0103866 0.209571 0)
(-0.0104301 0.214975 0)
(-0.0104121 0.220602 0)
(-0.0103293 0.226417 0)
(-0.0101787 0.232378 0)
(-0.00995855 0.238431 0)
(-0.00966832 0.244514 0)
(-0.0093087 0.250552 0)
(-0.00888198 0.256462 0)
(-0.00839209 0.262154 0)
(-0.00784476 0.267529 0)
(-0.00724757 0.272483 0)
(-0.00660995 0.276912 0)
(-0.0059431 0.280709 0)
(-0.00525989 0.283774 0)
(-0.00457457 0.286013 0)
(-0.00390251 0.287344 0)
(-0.00325974 0.287697 0)
(-0.00266249 0.287025 0)
(-0.00212661 0.285298 0)
(-0.00166694 0.28251 0)
(-0.0012967 0.278679 0)
(-0.00102685 0.273846 0)
(-0.000865578 0.26807 0)
(-0.000817853 0.261432 0)
(-0.000885177 0.254022 0)
(-0.00106556 0.245939 0)
(-0.00135377 0.23728 0)
(-0.00174183 0.228137 0)
(-0.00221971 0.218588 0)
(-0.00277619 0.208693 0)
(-0.00339989 0.198491 0)
(-0.0040803 0.187995 0)
(-0.00480865 0.177197 0)
(-0.00557878 0.166067 0)
(-0.00638756 0.154559 0)
(-0.00723519 0.142619 0)
(-0.00812497 0.130185 0)
(1.7911e-06 0.00270026 0)
(1.09759e-05 0.00800445 0)
(3.09669e-05 0.0132529 0)
(6.03873e-05 0.0184424 0)
(9.80052e-05 0.0235699 0)
(0.000142999 0.0286318 0)
(0.000194558 0.0336247 0)
(0.000251783 0.0385451 0)
(0.000313714 0.0433893 0)
(0.000379353 0.0481537 0)
(0.000447659 0.0528347 0)
(0.000517558 0.0574286 0)
(0.000587942 0.0619319 0)
(0.000657677 0.066341 0)
(0.000725608 0.0706525 0)
(0.000790563 0.0748633 0)
(0.000851362 0.0789702 0)
(0.000906823 0.0829705 0)
(0.00095577 0.0868616 0)
(0.00099704 0.0906412 0)
(0.00102949 0.0943075 0)
(0.00105201 0.0978588 0)
(0.00106354 0.101294 0)
(0.00106303 0.104613 0)
(0.00104953 0.107815 0)
(0.00102214 0.110901 0)
(0.000980013 0.113871 0)
(0.000922417 0.116727 0)
(0.000848691 0.119472 0)
(0.00075828 0.122108 0)
(0.00065073 0.124638 0)
(0.000525705 0.127068 0)
(0.000382986 0.129401 0)
(0.000222483 0.131644 0)
(4.42371e-05 0.133803 0)
(-0.000151572 0.135886 0)
(-0.000364621 0.137899 0)
(-0.000594436 0.139853 0)
(-0.000840392 0.141756 0)
(-0.0011017 0.14362 0)
(-0.00137741 0.145455 0)
(-0.00166638 0.147274 0)
(-0.00196733 0.149089 0)
(-0.00227875 0.150914 0)
(-0.00259894 0.152764 0)
(-0.00292601 0.154655 0)
(-0.00325785 0.156601 0)
(-0.00359209 0.158621 0)
(-0.00392613 0.160732 0)
(-0.00425713 0.162951 0)
(-0.00458195 0.165298 0)
(-0.00489717 0.167792 0)
(-0.00519908 0.17045 0)
(-0.00548368 0.173292 0)
(-0.00574663 0.176336 0)
(-0.00598335 0.179599 0)
(-0.00618893 0.183097 0)
(-0.00635827 0.186842 0)
(-0.00648602 0.190846 0)
(-0.00656674 0.195117 0)
(-0.00659491 0.199656 0)
(-0.00656509 0.204462 0)
(-0.00647202 0.209526 0)
(-0.00631081 0.214833 0)
(-0.00607706 0.220359 0)
(-0.00576712 0.226073 0)
(-0.00537827 0.231932 0)
(-0.00490891 0.237886 0)
(-0.00435882 0.243872 0)
(-0.00372937 0.24982 0)
(-0.00302371 0.255649 0)
(-0.00224692 0.261269 0)
(-0.00140608 0.266584 0)
(-0.000510379 0.271493 0)
(0.000428882 0.275892 0)
(0.00139842 0.279678 0)
(0.00238324 0.28275 0)
(0.00336678 0.285015 0)
(0.00433139 0.286391 0)
(0.00525882 0.28681 0)
(0.0061308 0.28622 0)
(0.0069297 0.284592 0)
(0.00763926 0.281916 0)