/*--------------------------------*- C++ -*----------------------------------*\
| =========                 |                                                 |
| \\      /  F ield         | OpenFOAM: The Open Source CFD Toolbox           |
|  \\    /   O peration     | Version:  2406                                  |
|   \\  /    A nd           | Website:  www.openfoam.com                      |
|    \\/     M anipulation  |                                                 |
\*---------------------------------------------------------------------------*/
FoamFile
{
    version     2.0;
    format      ascii;
    arch        "LSB;label=32;scalar=64";
    class       volScalarField;
    location    "13";
    object      p;
}
// * * * * * * * * * * * * * * * * * * * * * * * * * * * * * * * * * * * * * //

dimensions      [0 2 -2 0 0 0 0];

internalField   nonuniform List<scalar> 
30000
(
6.40454e-12
1.0193e-11
1.20161e-11
1.31e-11
1.38948e-11
1.45261e-11
1.50369e-11
1.54715e-11
1.58492e-11
1.61775e-11
1.6467e-11
1.67253e-11
1.69536e-11
1.71712e-11
1.73668e-11
1.75518e-11
1.77273e-11
1.78931e-11
1.80434e-11
1.81804e-11
1.83145e-11
1.84392e-11
1.85554e-11
1.86673e-11
1.87841e-11
1.8892e-11
1.89905e-11
1.90839e-11
1.91807e-11
1.92687e-11
1.93518e-11
1.94333e-11
1.95051e-11
1.9575e-11
1.96546e-11
1.97265e-11
1.97903e-11
1.98574e-11
1.99201e-11
1.99799e-11
2.00416e-11
2.01084e-11
2.01708e-11
2.02268e-11
2.02875e-11
2.03467e-11
2.04104e-11
2.04814e-11
2.05466e-11
2.06134e-11
2.06815e-11
2.07548e-11
2.08275e-11
2.08951e-11
2.09535e-11
2.10167e-11
2.10776e-11
2.11439e-11
2.12142e-11
2.1278e-11
2.13445e-11
2.14157e-11
2.14771e-11
2.15384e-11
2.16067e-11
2.16688e-11
2.17424e-11
2.18128e-11
2.18804e-11
2.1958e-11
2.20258e-11
2.20799e-11
2.2131e-11
2.21956e-11
2.22536e-11
2.23015e-11
2.23646e-11
2.242e-11
2.24602e-11
2.25017e-11
2.25524e-11
2.2601e-11
2.26459e-11
2.27004e-11
2.27597e-11
2.28024e-11
2.28574e-11
2.29205e-11
2.29689e-11
2.30218e-11
2.30685e-11
2.31204e-11
2.31822e-11
2.32457e-11
2.3307e-11
2.33714e-11
2.34202e-11
2.34784e-11
2.35425e-11
2.3593e-11
2.36367e-11
2.36769e-11
2.37185e-11
2.37559e-11
2.37921e-11
2.3834e-11
2.38636e-11
2.38926e-11
2.39167e-11
2.39392e-11
2.3969e-11
2.39948e-11
2.40071e-11
2.40232e-11
2.4049e-11
2.40759e-11
2.40915e-11
2.40923e-11
2.40927e-11
2.41009e-11
2.41027e-11
2.41027e-11
2.41006e-11
2.41083e-11
2.41117e-11
2.41041e-11
2.41005e-11
2.41082e-11
2.40992e-11
2.40917e-11
2.40902e-11
2.40824e-11
2.40635e-11
2.40599e-11
2.40516e-11
2.40326e-11
2.40205e-11
2.40165e-11
2.39924e-11
2.39839e-11
2.39955e-11
2.39934e-11
2.39907e-11
2.3992e-11
2.40048e-11
2.40066e-11
2.4006e-11
2.40227e-11
2.40381e-11
2.40355e-11
2.40525e-11
2.40553e-11
2.4047e-11
2.40607e-11
2.4057e-11
2.40479e-11
2.40554e-11
2.40511e-11
2.4044e-11
2.40355e-11
2.40452e-11
2.40512e-11
2.40462e-11
2.40378e-11
2.40337e-11
2.40281e-11
2.40229e-11
2.40327e-11
2.40181e-11
2.40214e-11
2.40355e-11
2.40242e-11
2.40289e-11
2.40558e-11
2.40561e-11
2.40573e-11
2.40678e-11
2.40854e-11
2.40961e-11
2.40955e-11
2.41046e-11
2.41071e-11
2.41036e-11
2.41094e-11
2.41065e-11
2.41209e-11
2.41346e-11
2.41307e-11
2.41349e-11
2.41391e-11
2.41424e-11
2.41407e-11
2.41291e-11
2.40996e-11
2.4088e-11
2.40871e-11
2.40751e-11
2.40677e-11
2.4064e-11
2.40416e-11
2.40114e-11
2.39916e-11
2.39587e-11
2.39351e-11
2.39174e-11
2.3904e-11
2.38841e-11
2.38518e-11
2.38114e-11
2.37773e-11
2.37385e-11
2.37074e-11
2.36753e-11
2.36325e-11
2.36049e-11
2.35728e-11
2.35342e-11
2.34932e-11
2.34519e-11
2.3416e-11
2.33902e-11
2.33686e-11
2.33319e-11
2.32919e-11
2.32444e-11
2.32013e-11
2.31604e-11
2.31183e-11
2.30839e-11
2.30565e-11
2.30255e-11
2.29808e-11
2.2917e-11
2.2862e-11
2.28083e-11
2.27341e-11
2.26776e-11
2.26243e-11
2.25815e-11
2.25255e-11
2.24735e-11
2.24181e-11
2.23413e-11
2.22725e-11
2.22264e-11
2.21597e-11
2.20891e-11
2.20308e-11
2.19614e-11
2.18799e-11
2.17912e-11
2.16986e-11
2.16161e-11
2.15573e-11
2.14905e-11
2.14015e-11
2.13281e-11
2.12448e-11
2.11466e-11
2.10582e-11
2.09676e-11
2.08832e-11
2.08158e-11
2.07208e-11
2.06343e-11
2.05434e-11
2.04449e-11
2.03686e-11
2.02508e-11
2.01258e-11
2.00551e-11
1.99463e-11
1.98057e-11
1.96762e-11
1.95353e-11
1.94197e-11
1.92704e-11
1.91068e-11
1.89768e-11
1.88486e-11
1.86918e-11
1.85259e-11
1.83531e-11
1.81775e-11
1.79976e-11
1.77831e-11
1.75792e-11
1.73488e-11
1.70833e-11
1.68185e-11
1.6546e-11
1.62244e-11
1.58749e-11
1.54788e-11
1.50079e-11
1.45037e-11
1.39016e-11
1.30819e-11
1.19784e-11
1.01553e-11
1.05633e-11
1.15507e-11
1.25596e-11
1.33837e-11
1.40612e-11
1.46325e-11
1.51097e-11
1.55253e-11
1.58971e-11
1.62158e-11
1.64944e-11
1.67471e-11
1.69734e-11
1.71865e-11
1.73833e-11
1.75583e-11
1.77394e-11
1.79027e-11
1.80521e-11
1.81864e-11
1.83226e-11
1.84461e-11
1.85543e-11
1.86699e-11
1.87891e-11
1.88998e-11
1.89962e-11
1.90863e-11
1.91809e-11
1.92733e-11
1.93576e-11
1.94324e-11
1.95084e-11
1.9574e-11
1.96582e-11
1.97306e-11
1.97938e-11
1.98599e-11
1.99182e-11
1.99787e-11
2.00415e-11
2.0107e-11
2.01768e-11
2.0229e-11
2.02864e-11
2.03442e-11
2.04093e-11
2.04775e-11
2.05447e-11
2.06133e-11
2.06788e-11
2.07582e-11
2.08267e-11
2.08957e-11
2.09576e-11
2.10153e-11
2.108e-11
2.11407e-11
2.12062e-11
2.12801e-11
2.13497e-11
2.14166e-11
2.1481e-11
2.15364e-11
2.16007e-11
2.1668e-11
2.1745e-11
2.18166e-11
2.18793e-11
2.19562e-11
2.20269e-11
2.20845e-11
2.2138e-11
2.21945e-11
2.22534e-11
2.23075e-11
2.23679e-11
2.24193e-11
2.24604e-11
2.25022e-11
2.25527e-11
2.25999e-11
2.26482e-11
2.2702e-11
2.27581e-11
2.28026e-11
2.28608e-11
2.29195e-11
2.29713e-11
2.30215e-11
2.30648e-11
2.31168e-11
2.31841e-11
2.32465e-11
2.33067e-11
2.33671e-11
2.34217e-11
2.34882e-11
2.35459e-11
2.35951e-11
2.36358e-11
2.36821e-11
2.37231e-11
2.3759e-11
2.37962e-11
2.38266e-11
2.38608e-11
2.39007e-11
2.39225e-11
2.39462e-11
2.39654e-11
2.39896e-11
2.40123e-11
2.40273e-11
2.40534e-11
2.40771e-11
2.40852e-11
2.40942e-11
2.40999e-11
2.41049e-11
2.41062e-11
2.41094e-11
2.41037e-11
2.41076e-11
2.41039e-11
2.41065e-11
2.41038e-11
2.41053e-11
2.4097e-11
2.40937e-11
2.40869e-11
2.40874e-11
2.40746e-11
2.40557e-11
2.40459e-11
2.40354e-11
2.40214e-11
2.40128e-11
2.39915e-11
2.39795e-11
2.39833e-11
2.39857e-11
2.39899e-11
2.39963e-11
2.4013e-11
2.40094e-11
2.40058e-11
2.40186e-11
2.40343e-11
2.40423e-11
2.40523e-11
2.40535e-11
2.40547e-11
2.40581e-11
2.40555e-11
2.4052e-11
2.40492e-11
2.40456e-11
2.40482e-11
2.40383e-11
2.40442e-11
2.40499e-11
2.40465e-11
2.40416e-11
2.40333e-11
2.40294e-11
2.40233e-11
2.4021e-11
2.40224e-11
2.403e-11
2.40242e-11
2.40318e-11
2.40354e-11
2.40434e-11
2.40525e-11
2.40568e-11
2.40725e-11
2.40904e-11
2.40986e-11
2.40931e-11
2.40969e-11
2.41033e-11
2.41014e-11
2.41129e-11
2.41159e-11
2.41217e-11
2.41331e-11
2.41389e-11
2.4132e-11
2.41376e-11
2.41407e-11
2.41409e-11
2.41261e-11
2.41044e-11
2.40992e-11
2.40934e-11
2.40772e-11
2.40776e-11
2.40601e-11
2.40278e-11
2.40127e-11
2.39931e-11
2.39654e-11
2.3944e-11
2.39178e-11
2.38977e-11
2.38861e-11
2.38626e-11
2.38155e-11
2.37736e-11
2.37416e-11
2.37008e-11
2.36683e-11
2.36418e-11
2.36038e-11
2.35696e-11
2.35397e-11
2.3496e-11
2.3452e-11
2.34197e-11
2.33938e-11
2.33579e-11
2.33203e-11
2.32854e-11
2.32447e-11
2.32051e-11
2.31692e-11
2.31219e-11
2.30917e-11
2.30695e-11
2.30232e-11
2.29684e-11
2.29197e-11
2.28648e-11
2.28075e-11
2.27405e-11
2.26806e-11
2.26316e-11
2.25732e-11
2.25214e-11
2.24711e-11
2.24182e-11
2.23526e-11
2.22805e-11
2.22191e-11
2.21616e-11
2.20976e-11
2.20298e-11
2.19633e-11
2.18752e-11
2.17914e-11
2.17053e-11
2.16233e-11
2.15623e-11
2.1494e-11
2.14093e-11
2.13207e-11
2.12351e-11
2.11504e-11
2.10586e-11
2.09707e-11
2.08839e-11
2.08066e-11
2.07228e-11
2.06426e-11
2.05489e-11
2.0444e-11
2.03669e-11
2.02604e-11
2.01452e-11
2.00527e-11
1.994e-11
1.98114e-11
1.96763e-11
1.95457e-11
1.94125e-11
1.92809e-11
1.91288e-11
1.89902e-11
1.8837e-11
1.86872e-11
1.85357e-11
1.83583e-11
1.81842e-11
1.80115e-11
1.78092e-11
1.75861e-11
1.73584e-11
1.71047e-11
1.68484e-11
1.65675e-11
1.62519e-11
1.59122e-11
1.55326e-11
1.50926e-11
1.4618e-11
1.40493e-11
1.33673e-11
1.25356e-11
1.15226e-11
1.23377e-11
1.26578e-11
1.32249e-11
1.3802e-11
1.43356e-11
1.48117e-11
1.52484e-11
1.56322e-11
1.59849e-11
1.6282e-11
1.65465e-11
1.67904e-11
1.70163e-11
1.72163e-11
1.74035e-11
1.75793e-11
1.776e-11
1.79191e-11
1.8071e-11
1.82016e-11
1.83404e-11
1.84531e-11
1.85623e-11
1.86827e-11
1.87966e-11
1.89124e-11
1.90092e-11
1.90919e-11
1.91878e-11
1.92875e-11
1.93626e-11
1.9433e-11
1.95144e-11
1.95849e-11
1.96562e-11
1.97361e-11
1.9802e-11
1.98637e-11
1.99121e-11
1.99776e-11
2.00486e-11
2.01129e-11
2.01813e-11
2.02287e-11
2.02784e-11
2.03425e-11
2.04013e-11
2.04717e-11
2.05399e-11
2.06057e-11
2.06754e-11
2.0759e-11
2.08391e-11
2.09005e-11
2.09629e-11
2.10102e-11
2.108e-11
2.1138e-11
2.12001e-11
2.12724e-11
2.13553e-11
2.14159e-11
2.14851e-11
2.15307e-11
2.1588e-11
2.16685e-11
2.1742e-11
2.18172e-11
2.18859e-11
2.19543e-11
2.20301e-11
2.20961e-11
2.21439e-11
2.2205e-11
2.22594e-11
2.23163e-11
2.23771e-11
2.24168e-11
2.24628e-11
2.24999e-11
2.25477e-11
2.26056e-11
2.2656e-11
2.26992e-11
2.27525e-11
2.27957e-11
2.28588e-11
2.29188e-11
2.29728e-11
2.30243e-11
2.30642e-11
2.3121e-11
2.31838e-11
2.32515e-11
2.33075e-11
2.33635e-11
2.34272e-11
2.35043e-11
2.355e-11
2.35878e-11
2.36398e-11
2.36808e-11
2.37255e-11
2.37583e-11
2.37973e-11
2.38277e-11
2.38721e-11
2.38981e-11
2.39276e-11
2.39618e-11
2.39642e-11
2.399e-11
2.40149e-11
2.40306e-11
2.40544e-11
2.4076e-11
2.40864e-11
2.41017e-11
2.41029e-11
2.41059e-11
2.41129e-11
2.41164e-11
2.41051e-11
2.41132e-11
2.41098e-11
2.40987e-11
2.40984e-11
2.41137e-11
2.41061e-11
2.40969e-11
2.40896e-11
2.40897e-11
2.40776e-11
2.40588e-11
2.40334e-11
2.40298e-11
2.4024e-11
2.4005e-11
2.39888e-11
2.39783e-11
2.39696e-11
2.39747e-11
2.39851e-11
2.40046e-11
2.40068e-11
2.39889e-11
2.40035e-11
2.40244e-11
2.40351e-11
2.40491e-11
2.40498e-11
2.40498e-11
2.40668e-11
2.40615e-11
2.40657e-11
2.40534e-11
2.40409e-11
2.40502e-11
2.40424e-11
2.40349e-11
2.40434e-11
2.4044e-11
2.4053e-11
2.40508e-11
2.40294e-11
2.40237e-11
2.40259e-11
2.40138e-11
2.40206e-11
2.40262e-11
2.40229e-11
2.40258e-11
2.4039e-11
2.40409e-11
2.4054e-11
2.40571e-11
2.40752e-11
2.40984e-11
2.40993e-11
2.40975e-11
2.40889e-11
2.4094e-11
2.41025e-11
2.41085e-11
2.41245e-11
2.41295e-11
2.41325e-11
2.41471e-11
2.41375e-11
2.41353e-11
2.4149e-11
2.41494e-11
2.41261e-11
2.41131e-11
2.40998e-11
2.40995e-11
2.40906e-11
2.40781e-11
2.40569e-11
2.4024e-11
2.40134e-11
2.39987e-11
2.39753e-11
2.39482e-11
2.3918e-11
2.39008e-11
2.38944e-11
2.38619e-11
2.38091e-11
2.3773e-11
2.37404e-11
2.37014e-11
2.36729e-11
2.36592e-11
2.36059e-11
2.35654e-11
2.35373e-11
2.35051e-11
2.34482e-11
2.3421e-11
2.33896e-11
2.33471e-11
2.3309e-11
2.32788e-11
2.32467e-11
2.3214e-11
2.31678e-11
2.31394e-11
2.3106e-11
2.30722e-11
2.30101e-11
2.29583e-11
2.29217e-11
2.2871e-11
2.28063e-11
2.27521e-11
2.26792e-11
2.26335e-11
2.25784e-11
2.25276e-11
2.24696e-11
2.24174e-11
2.23741e-11
2.22907e-11
2.22189e-11
2.21634e-11
2.21113e-11
2.20394e-11
2.19635e-11
2.18724e-11
2.1791e-11
2.17069e-11
2.16386e-11
2.1561e-11
2.14895e-11
2.14269e-11
2.1326e-11
2.12351e-11
2.11471e-11
2.10675e-11
2.09654e-11
2.08825e-11
2.08083e-11
2.07354e-11
2.06418e-11
2.05558e-11
2.04561e-11
2.03687e-11
2.0281e-11
2.01658e-11
2.00608e-11
1.99499e-11
1.98169e-11
1.96812e-11
1.95539e-11
1.94088e-11
1.92921e-11
1.91582e-11
1.90039e-11
1.88338e-11
1.86901e-11
1.85517e-11
1.83783e-11
1.82007e-11
1.80476e-11
1.78484e-11
1.76126e-11
1.73952e-11
1.71392e-11
1.68751e-11
1.66169e-11
1.63166e-11
1.59851e-11
1.56351e-11
1.5245e-11
1.48144e-11
1.43269e-11
1.3785e-11
1.32064e-11
1.26372e-11
1.33597e-11
1.35152e-11
1.38498e-11
1.42576e-11
1.46564e-11
1.50503e-11
1.54365e-11
1.57857e-11
1.60906e-11
1.63668e-11
1.66477e-11
1.68624e-11
1.70695e-11
1.72598e-11
1.74546e-11
1.76208e-11
1.77888e-11
1.79505e-11
1.80894e-11
1.82236e-11
1.83553e-11
1.84764e-11
1.85899e-11
1.87017e-11
1.88138e-11
1.89237e-11
1.90188e-11
1.91061e-11
1.92025e-11
1.9299e-11
1.93821e-11
1.94574e-11
1.95408e-11
1.95957e-11
1.96596e-11
1.9736e-11
1.98146e-11
1.98592e-11
1.99174e-11
1.99788e-11
2.00474e-11
2.01107e-11
2.01709e-11
2.02204e-11
2.02741e-11
2.03446e-11
2.03997e-11
2.04685e-11
2.05346e-11
2.05932e-11
2.06814e-11
2.07725e-11
2.08377e-11
2.09082e-11
2.09729e-11
2.10114e-11
2.10698e-11
2.11298e-11
2.12026e-11
2.12651e-11
2.13615e-11
2.14146e-11
2.14807e-11
2.15308e-11
2.15863e-11
2.16561e-11
2.17358e-11
2.1818e-11
2.18878e-11
2.19649e-11
2.20481e-11
2.21017e-11
2.21531e-11
2.22163e-11
2.22622e-11
2.23245e-11
2.23669e-11
2.24087e-11
2.24594e-11
2.25169e-11
2.25479e-11
2.26121e-11
2.26562e-11
2.27044e-11
2.27544e-11
2.2791e-11
2.28441e-11
2.29189e-11
2.29779e-11
2.30204e-11
2.30653e-11
2.3124e-11
2.31745e-11
2.32425e-11
2.3311e-11
2.3372e-11
2.34312e-11
2.35013e-11
2.35482e-11
2.35925e-11
2.36229e-11
2.36766e-11
2.37224e-11
2.37555e-11
2.379e-11
2.38362e-11
2.38759e-11
2.39032e-11
2.39337e-11
2.39682e-11
2.39752e-11
2.39966e-11
2.40227e-11
2.40542e-11
2.40633e-11
2.40713e-11
2.40933e-11
2.41017e-11
2.41059e-11
2.41072e-11
2.41158e-11
2.41164e-11
2.41098e-11
2.41092e-11
2.41093e-11
2.41015e-11
2.40913e-11
2.41019e-11
2.41055e-11
2.41021e-11
2.40972e-11
2.40861e-11
2.40827e-11
2.40502e-11
2.40259e-11
2.4027e-11
2.40062e-11
2.39944e-11
2.39921e-11
2.39791e-11
2.39642e-11
2.39684e-11
2.39844e-11
2.40119e-11
2.40016e-11
2.39901e-11
2.40064e-11
2.40331e-11
2.40348e-11
2.40393e-11
2.4056e-11
2.40488e-11
2.40624e-11
2.40705e-11
2.40629e-11
2.40498e-11
2.40344e-11
2.40333e-11
2.4038e-11
2.40263e-11
2.40371e-11
2.40496e-11
2.40429e-11
2.40391e-11
2.40363e-11
2.40249e-11
2.40101e-11
2.40104e-11
2.40124e-11
2.40233e-11
2.40156e-11
2.40168e-11
2.40391e-11
2.40567e-11
2.40561e-11
2.40525e-11
2.407e-11
2.4098e-11
2.40934e-11
2.41019e-11
2.40881e-11
2.40889e-11
2.40933e-11
2.41127e-11
2.41361e-11
2.41357e-11
2.41297e-11
2.41459e-11
2.41323e-11
2.41457e-11
2.41565e-11
2.41692e-11
2.41372e-11
2.41073e-11
2.40992e-11
2.41036e-11
2.40918e-11
2.40831e-11
2.40611e-11
2.40434e-11
2.40143e-11
2.39948e-11
2.39688e-11
2.39515e-11
2.39329e-11
2.39119e-11
2.38836e-11
2.38546e-11
2.382e-11
2.37772e-11
2.37444e-11
2.37149e-11
2.36804e-11
2.36461e-11
2.35998e-11
2.35721e-11
2.3533e-11
2.35006e-11
2.34576e-11
2.34151e-11
2.33779e-11
2.33402e-11
2.33045e-11
2.32661e-11
2.32533e-11
2.32087e-11
2.31788e-11
2.31421e-11
2.31069e-11
2.3064e-11
2.30135e-11
2.29611e-11
2.29161e-11
2.2874e-11
2.28157e-11
2.27553e-11
2.26952e-11
2.26312e-11
2.25904e-11
2.25379e-11
2.24862e-11
2.24267e-11
2.23736e-11
2.23028e-11
2.2226e-11
2.21707e-11
2.21128e-11
2.20481e-11
2.19568e-11
2.18726e-11
2.17859e-11
2.17034e-11
2.16405e-11
2.1567e-11
2.14878e-11
2.14258e-11
2.13444e-11
2.12434e-11
2.11608e-11
2.10648e-11
2.09687e-11
2.08947e-11
2.08235e-11
2.07442e-11
2.06434e-11
2.05605e-11
2.04716e-11
2.03804e-11
2.02943e-11
2.01937e-11
2.00642e-11
1.99485e-11
1.98131e-11
1.96861e-11
1.9572e-11
1.94179e-11
1.93006e-11
1.91643e-11
1.90194e-11
1.88521e-11
1.87015e-11
1.85473e-11
1.84005e-11
1.82318e-11
1.8079e-11
1.78907e-11
1.76699e-11
1.74489e-11
1.72035e-11
1.69345e-11
1.66815e-11
1.64118e-11
1.61001e-11
1.57963e-11
1.5446e-11
1.5062e-11
1.46647e-11
1.42477e-11
1.38392e-11
1.35054e-11
1.41034e-11
1.41876e-11
1.44099e-11
1.46983e-11
1.4991e-11
1.53323e-11
1.56437e-11
1.59408e-11
1.62249e-11
1.65029e-11
1.67751e-11
1.69521e-11
1.71324e-11
1.73218e-11
1.75152e-11
1.76712e-11
1.78495e-11
1.79997e-11
1.81099e-11
1.82404e-11
1.83767e-11
1.85007e-11
1.86105e-11
1.87127e-11
1.88323e-11
1.89413e-11
1.90246e-11
1.91178e-11
1.9223e-11
1.93022e-11
1.93978e-11
1.94947e-11
1.95541e-11
1.95916e-11
1.96597e-11
1.97451e-11
1.98188e-11
1.98737e-11
1.99228e-11
1.99876e-11
2.00429e-11
2.0107e-11
2.01453e-11
2.02016e-11
2.02623e-11
2.0352e-11
2.03936e-11
2.04668e-11
2.05274e-11
2.05696e-11
2.06865e-11
2.07912e-11
2.08409e-11
2.09135e-11
2.09691e-11
2.10076e-11
2.10827e-11
2.11307e-11
2.119e-11
2.12771e-11
2.135e-11
2.14095e-11
2.14743e-11
2.1521e-11
2.15793e-11
2.16553e-11
2.17319e-11
2.18098e-11
2.18887e-11
2.19763e-11
2.20609e-11
2.2107e-11
2.21501e-11
2.22149e-11
2.22765e-11
2.23383e-11
2.23617e-11
2.24052e-11
2.24743e-11
2.25047e-11
2.25514e-11
2.26072e-11
2.26495e-11
2.27022e-11
2.27622e-11
2.2812e-11
2.28447e-11
2.29074e-11
2.29707e-11
2.30104e-11
2.30581e-11
2.31233e-11
2.31625e-11
2.32222e-11
2.33002e-11
2.33826e-11
2.34166e-11
2.34918e-11
2.3553e-11
2.36066e-11
2.36209e-11
2.36912e-11
2.37168e-11
2.37426e-11
2.37872e-11
2.38423e-11
2.38823e-11
2.39142e-11
2.39408e-11
2.39728e-11
2.39902e-11
2.40118e-11
2.40394e-11
2.40563e-11
2.40757e-11
2.40709e-11
2.40899e-11
2.41158e-11
2.41331e-11
2.4109e-11
2.41041e-11
2.41184e-11
2.41135e-11
2.40968e-11
2.41026e-11
2.40999e-11
2.40864e-11
2.41178e-11
2.41144e-11
2.4091e-11
2.40994e-11
2.40893e-11
2.40846e-11
2.40535e-11
2.40276e-11
2.40215e-11
2.399e-11
2.39797e-11
2.39706e-11
2.39625e-11
2.39713e-11
2.39692e-11
2.39796e-11
2.40195e-11
2.39951e-11
2.39909e-11
2.40129e-11
2.4027e-11
2.40339e-11
2.40563e-11
2.405e-11
2.40497e-11
2.40695e-11
2.40471e-11
2.40521e-11
2.40441e-11
2.4022e-11
2.40079e-11
2.40246e-11
2.40342e-11
2.40272e-11
2.40367e-11
2.40389e-11
2.4032e-11
2.40414e-11
2.40269e-11
2.40062e-11
2.39943e-11
2.40185e-11
2.40303e-11
2.40156e-11
2.40236e-11
2.40436e-11
2.40353e-11
2.40493e-11
2.40579e-11
2.40674e-11
2.40848e-11
2.40905e-11
2.41067e-11
2.40885e-11
2.41e-11
2.41084e-11
2.41074e-11
2.41184e-11
2.41295e-11
2.41357e-11
2.41525e-11
2.41554e-11
2.4152e-11
2.41554e-11
2.41828e-11
2.41536e-11
2.41158e-11
2.40953e-11
2.41048e-11
2.40971e-11
2.40819e-11
2.40595e-11
2.40623e-11
2.40133e-11
2.39698e-11
2.39636e-11
2.39598e-11
2.39401e-11
2.39123e-11
2.387e-11
2.38513e-11
2.38335e-11
2.37884e-11
2.37589e-11
2.37354e-11
2.36868e-11
2.36313e-11
2.35965e-11
2.35827e-11
2.35303e-11
2.35014e-11
2.34561e-11
2.34091e-11
2.33679e-11
2.33515e-11
2.32897e-11
2.32554e-11
2.3252e-11
2.32183e-11
2.31841e-11
2.31509e-11
2.311e-11
2.30781e-11
2.30144e-11
2.29634e-11
2.2916e-11
2.28648e-11
2.28169e-11
2.27585e-11
2.27093e-11
2.26408e-11
2.26028e-11
2.25376e-11
2.24805e-11
2.24543e-11
2.23766e-11
2.23136e-11
2.22311e-11
2.21742e-11
2.21105e-11
2.20397e-11
2.19665e-11
2.18581e-11
2.17774e-11
2.17115e-11
2.16262e-11
2.15688e-11
2.15057e-11
2.14231e-11
2.13612e-11
2.12532e-11
2.11648e-11
2.10588e-11
2.09826e-11
2.08993e-11
2.08246e-11
2.07583e-11
2.06622e-11
2.05793e-11
2.04819e-11
2.04085e-11
2.03063e-11
2.0202e-11
2.00763e-11
1.99587e-11
1.98457e-11
1.96993e-11
1.95788e-11
1.94397e-11
1.93072e-11
1.91622e-11
1.90299e-11
1.88947e-11
1.87072e-11
1.85576e-11
1.84269e-11
1.82853e-11
1.81068e-11
1.79504e-11
1.77295e-11
1.75055e-11
1.72929e-11
1.70315e-11
1.67661e-11
1.6541e-11
1.62732e-11
1.59797e-11
1.56762e-11
1.53185e-11
1.50205e-11
1.4702e-11
1.44087e-11
1.419e-11
1.468e-11
1.47498e-11
1.49086e-11
1.51035e-11
1.53361e-11
1.55891e-11
1.58661e-11
1.61393e-11
1.63753e-11
1.66357e-11
1.68747e-11
1.70687e-11
1.72455e-11
1.74064e-11
1.75784e-11
1.77249e-11
1.78776e-11
1.80472e-11
1.81739e-11
1.82961e-11
1.84135e-11
1.85149e-11
1.86125e-11
1.87411e-11
1.8856e-11
1.89534e-11
1.90377e-11
1.91157e-11
1.9244e-11
1.93519e-11
1.94122e-11
1.94869e-11
1.95629e-11
1.96056e-11
1.96677e-11
1.97356e-11
1.98214e-11
1.98846e-11
1.99391e-11
1.9988e-11
2.00551e-11
2.00959e-11
2.01429e-11
2.02055e-11
2.02636e-11
2.03177e-11
2.03736e-11
2.04626e-11
2.05191e-11
2.05767e-11
2.06802e-11
2.07895e-11
2.08453e-11
2.09131e-11
2.09825e-11
2.10309e-11
2.10585e-11
2.11406e-11
2.118e-11
2.12738e-11
2.13417e-11
2.13909e-11
2.14678e-11
2.15156e-11
2.15777e-11
2.1659e-11
2.17183e-11
2.18057e-11
2.18836e-11
2.19783e-11
2.2046e-11
2.21156e-11
2.21741e-11
2.22304e-11
2.22787e-11
2.23477e-11
2.23638e-11
2.24069e-11
2.2493e-11
2.25068e-11
2.25341e-11
2.26026e-11
2.26596e-11
2.27237e-11
2.27665e-11
2.28107e-11
2.28359e-11
2.29026e-11
2.2942e-11
2.29949e-11
2.30451e-11
2.31043e-11
2.31712e-11
2.32232e-11
2.3265e-11
2.33638e-11
2.34026e-11
2.34892e-11
2.35423e-11
2.36109e-11
2.36387e-11
2.36718e-11
2.36826e-11
2.3723e-11
2.37839e-11
2.3849e-11
2.38741e-11
2.39206e-11
2.39446e-11
2.39754e-11
2.39988e-11
2.40341e-11
2.40611e-11
2.40797e-11
2.40892e-11
2.40823e-11
2.40921e-11
2.41061e-11
2.41362e-11
2.41218e-11
2.41111e-11
2.41227e-11
2.41061e-11
2.41005e-11
2.41033e-11
2.41121e-11
2.40859e-11
2.41198e-11
2.41333e-11
2.40974e-11
2.41101e-11
2.40845e-11
2.40586e-11
2.4028e-11
2.40144e-11
2.40241e-11
2.39809e-11
2.39723e-11
2.39687e-11
2.39882e-11
2.3987e-11
2.39702e-11
2.39628e-11
2.40139e-11
2.39966e-11
2.40245e-11
2.4019e-11
2.40354e-11
2.40527e-11
2.4064e-11
2.40572e-11
2.40535e-11
2.40456e-11
2.40369e-11
2.40318e-11
2.40346e-11
2.40178e-11
2.40165e-11
2.39999e-11
2.40226e-11
2.40247e-11
2.40336e-11
2.4009e-11
2.40286e-11
2.40295e-11
2.40044e-11
2.39984e-11
2.39987e-11
2.40259e-11
2.40473e-11
2.40266e-11
2.40397e-11
2.40589e-11
2.40248e-11
2.40457e-11
2.40482e-11
2.40543e-11
2.40696e-11
2.40855e-11
2.41286e-11
2.40919e-11
2.41198e-11
2.41219e-11
2.41082e-11
2.40773e-11
2.41123e-11
2.41486e-11
2.41478e-11
2.41732e-11
2.41766e-11
2.41689e-11
2.41728e-11
2.41536e-11
2.41387e-11
2.41224e-11
2.41255e-11
2.40965e-11
2.40906e-11
2.4082e-11
2.40518e-11
2.40076e-11
2.39821e-11
2.39377e-11
2.39468e-11
2.39412e-11
2.39201e-11
2.38996e-11
2.38727e-11
2.38385e-11
2.37997e-11
2.37573e-11
2.37372e-11
2.36818e-11
2.36505e-11
2.36041e-11
2.35822e-11
2.35422e-11
2.35014e-11
2.34568e-11
2.33973e-11
2.33684e-11
2.33338e-11
2.33026e-11
2.32508e-11
2.32423e-11
2.32104e-11
2.31866e-11
2.31321e-11
2.31331e-11
2.30904e-11
2.3022e-11
2.29556e-11
2.2918e-11
2.28624e-11
2.28096e-11
2.27709e-11
2.27122e-11
2.26754e-11
2.25983e-11
2.25362e-11
2.24827e-11
2.24458e-11
2.23852e-11
2.23112e-11
2.22207e-11
2.21687e-11
2.21046e-11
2.20331e-11
2.19558e-11
2.18717e-11
2.17882e-11
2.17377e-11
2.16358e-11
2.15732e-11
2.15079e-11
2.14174e-11
2.13725e-11
2.12737e-11
2.1165e-11
2.10736e-11
2.09825e-11
2.08864e-11
2.08389e-11
2.07615e-11
2.06928e-11
2.06071e-11
2.05013e-11
2.04065e-11
2.03013e-11
2.02297e-11
2.00893e-11
1.9951e-11
1.98546e-11
1.97135e-11
1.95864e-11
1.94728e-11
1.9323e-11
1.91641e-11
1.90331e-11
1.88935e-11
1.87409e-11
1.86029e-11
1.84684e-11
1.83358e-11
1.81576e-11
1.79986e-11
1.7816e-11
1.75894e-11
1.73865e-11
1.71594e-11
1.68926e-11
1.66884e-11
1.64656e-11
1.61903e-11
1.5902e-11
1.56259e-11
1.53518e-11
1.51218e-11
1.48993e-11
1.47461e-11
1.51591e-11
1.5214e-11
1.53293e-11
1.54758e-11
1.56674e-11
1.5862e-11
1.61123e-11
1.63417e-11
1.65304e-11
1.67475e-11
1.69656e-11
1.71711e-11
1.73564e-11
1.74928e-11
1.76431e-11
1.78142e-11
1.79325e-11
1.80919e-11
1.82196e-11
1.83399e-11
1.84582e-11
1.8552e-11
1.86603e-11
1.8792e-11
1.88819e-11
1.89693e-11
1.90663e-11
1.91684e-11
1.92508e-11
1.93731e-11
1.94183e-11
1.95129e-11
1.9564e-11
1.96079e-11
1.96577e-11
1.97525e-11
1.98339e-11
1.98929e-11
1.99368e-11
2.00079e-11
2.00526e-11
2.01032e-11
2.01565e-11
2.01886e-11
2.02562e-11
2.03182e-11
2.03624e-11
2.04295e-11
2.05209e-11
2.05917e-11
2.06905e-11
2.07838e-11
2.08605e-11
2.09308e-11
2.09825e-11
2.10262e-11
2.10686e-11
2.11329e-11
2.11767e-11
2.1264e-11
2.13418e-11
2.13979e-11
2.1476e-11
2.15126e-11
2.15866e-11
2.16539e-11
2.17142e-11
2.17801e-11
2.18747e-11
2.19816e-11
2.20663e-11
2.21038e-11
2.21749e-11
2.22461e-11
2.2323e-11
2.23546e-11
2.23644e-11
2.24122e-11
2.24841e-11
2.25116e-11
2.25275e-11
2.25953e-11
2.2636e-11
2.26899e-11
2.27606e-11
2.28004e-11
2.28517e-11
2.28825e-11
2.29235e-11
2.29771e-11
2.30563e-11
2.31021e-11
2.31639e-11
2.32202e-11
2.32852e-11
2.33371e-11
2.33825e-11
2.34776e-11
2.35294e-11
2.35992e-11
2.36317e-11
2.3654e-11
2.36681e-11
2.37379e-11
2.37758e-11
2.38514e-11
2.38691e-11
2.3918e-11
2.39453e-11
2.39809e-11
2.40154e-11
2.40637e-11
2.40527e-11
2.40751e-11
2.411e-11
2.41076e-11
2.41201e-11
2.41392e-11
2.41346e-11
2.41135e-11
2.41138e-11
2.41049e-11
2.41055e-11
2.41073e-11
2.41216e-11
2.41143e-11
2.4107e-11
2.41093e-11
2.41126e-11
2.41056e-11
2.41099e-11
2.40793e-11
2.40431e-11
2.40393e-11
2.40367e-11
2.40124e-11
2.39503e-11
2.39597e-11
2.39632e-11
2.39822e-11
2.40033e-11
2.39803e-11
2.39663e-11
2.40058e-11
2.39894e-11
2.40215e-11
2.40316e-11
2.40514e-11
2.40613e-11
2.4083e-11
2.40535e-11
2.40569e-11
2.40309e-11
2.40213e-11
2.40423e-11
2.40304e-11
2.40216e-11
2.40064e-11
2.39887e-11
2.39931e-11
2.39921e-11
2.4017e-11
2.40277e-11
2.40178e-11
2.39961e-11
2.40093e-11
2.40179e-11
2.40027e-11
2.40132e-11
2.40245e-11
2.40178e-11
2.40412e-11
2.40307e-11
2.40101e-11
2.40473e-11
2.40329e-11
2.40548e-11
2.40671e-11
2.40897e-11
2.41095e-11
2.4105e-11
2.41136e-11
2.4118e-11
2.41014e-11
2.40891e-11
2.41006e-11
2.41389e-11
2.41835e-11
2.4173e-11
2.41675e-11
2.41515e-11
2.41773e-11
2.41637e-11
2.41538e-11
2.41578e-11
2.41417e-11
2.41121e-11
2.41025e-11
2.40836e-11
2.40497e-11
2.40174e-11
2.39952e-11
2.39304e-11
2.39332e-11
2.39369e-11
2.39124e-11
2.38981e-11
2.38896e-11
2.38636e-11
2.38336e-11
2.3773e-11
2.37312e-11
2.36658e-11
2.36294e-11
2.36057e-11
2.35748e-11
2.35548e-11
2.35183e-11
2.3464e-11
2.34068e-11
2.33543e-11
2.33197e-11
2.32971e-11
2.32569e-11
2.32248e-11
2.32176e-11
2.32034e-11
2.31197e-11
2.31427e-11
2.30955e-11
2.30517e-11
2.2975e-11
2.28998e-11
2.28634e-11
2.28285e-11
2.27646e-11
2.27273e-11
2.2685e-11
2.2598e-11
2.25392e-11
2.24859e-11
2.24435e-11
2.23641e-11
2.22957e-11
2.2236e-11
2.2153e-11
2.21178e-11
2.20553e-11
2.19428e-11
2.18532e-11
2.18081e-11
2.17507e-11
2.16429e-11
2.15696e-11
2.15091e-11
2.14182e-11
2.13544e-11
2.1275e-11
2.11713e-11
2.10871e-11
2.09909e-11
2.09144e-11
2.08277e-11
2.07962e-11
2.07352e-11
2.06053e-11
2.0509e-11
2.04151e-11
2.03181e-11
2.02398e-11
2.00983e-11
1.99686e-11
1.98656e-11
1.97271e-11
1.96071e-11
1.94761e-11
1.93406e-11
1.91958e-11
1.9054e-11
1.89129e-11
1.87835e-11
1.86237e-11
1.85084e-11
1.83804e-11
1.82449e-11
1.80904e-11
1.78672e-11
1.76878e-11
1.74892e-11
1.72675e-11
1.70449e-11
1.68426e-11
1.664e-11
1.63994e-11
1.61356e-11
1.59294e-11
1.56846e-11
1.54854e-11
1.53169e-11
1.5182e-11
1.55988e-11
1.5618e-11
1.5706e-11
1.58034e-11
1.59822e-11
1.61502e-11
1.63321e-11
1.6537e-11
1.6697e-11
1.68707e-11
1.70526e-11
1.72576e-11
1.74797e-11
1.76199e-11
1.77417e-11
1.79039e-11
1.80037e-11
1.81481e-11
1.8253e-11
1.83649e-11
1.84753e-11
1.85823e-11
1.87031e-11
1.88316e-11
1.89172e-11
1.9027e-11
1.90906e-11
1.91964e-11
1.92849e-11
1.93736e-11
1.94744e-11
1.95549e-11
1.95859e-11
1.95876e-11
1.96512e-11
1.97691e-11
1.98463e-11
1.9922e-11
1.99465e-11
2.00362e-11
2.00648e-11
2.01265e-11
2.01522e-11
2.0203e-11
2.02325e-11
2.02999e-11
2.03691e-11
2.04523e-11
2.05209e-11
2.0605e-11
2.06821e-11
2.07799e-11
2.08642e-11
2.09319e-11
2.09854e-11
2.10386e-11
2.11005e-11
2.11529e-11
2.11874e-11
2.12647e-11
2.13404e-11
2.14101e-11
2.14768e-11
2.15281e-11
2.15785e-11
2.16314e-11
2.17333e-11
2.18041e-11
2.18626e-11
2.19913e-11
2.20508e-11
2.20955e-11
2.21966e-11
2.22579e-11
2.23285e-11
2.23608e-11
2.23793e-11
2.24414e-11
2.24898e-11
2.25002e-11
2.25334e-11
2.25773e-11
2.26382e-11
2.26931e-11
2.27432e-11
2.27735e-11
2.28275e-11
2.28615e-11
2.28953e-11
2.29807e-11
2.30521e-11
2.31113e-11
2.31569e-11
2.32088e-11
2.32632e-11
2.33153e-11
2.33798e-11
2.348e-11
2.35375e-11
2.35966e-11
2.3641e-11
2.36474e-11
2.36707e-11
2.37304e-11
2.38007e-11
2.38196e-11
2.38593e-11
2.39348e-11
2.3963e-11
2.40151e-11
2.40361e-11
2.40867e-11
2.40771e-11
2.40799e-11
2.40987e-11
2.41217e-11
2.41358e-11
2.41548e-11
2.41141e-11
2.41203e-11
2.41265e-11
2.41201e-11
2.41235e-11
2.41167e-11
2.41251e-11
2.41427e-11
2.41205e-11
2.41066e-11
2.41286e-11
2.41001e-11
2.40728e-11
2.40587e-11
2.40666e-11
2.40489e-11
2.40325e-11
2.40098e-11
2.39644e-11
2.3973e-11
2.39534e-11
2.39611e-11
2.3972e-11
2.39903e-11
2.40097e-11
2.39876e-11
2.39791e-11
2.39968e-11
2.403e-11
2.40443e-11
2.40632e-11
2.40708e-11
2.40507e-11
2.40393e-11
2.40315e-11
2.40232e-11
2.40283e-11
2.40195e-11
2.40157e-11
2.39798e-11
2.39601e-11
2.39764e-11
2.39726e-11
2.40032e-11
2.40187e-11
2.40228e-11
2.40085e-11
2.39988e-11
2.40044e-11
2.40136e-11
2.39921e-11
2.39928e-11
2.40141e-11
2.40122e-11
2.40134e-11
2.40214e-11
2.40334e-11
2.40254e-11
2.40369e-11
2.40824e-11
2.40873e-11
2.41007e-11
2.41053e-11
2.41046e-11
2.41003e-11
2.4095e-11
2.41189e-11
2.41233e-11
2.41371e-11
2.41445e-11
2.41737e-11
2.41693e-11
2.41462e-11
2.41874e-11
2.41993e-11
2.41752e-11
2.42003e-11
2.41765e-11
2.41348e-11
2.4111e-11
2.4076e-11
2.40442e-11
2.40202e-11
2.40126e-11
2.3945e-11
2.39249e-11
2.39211e-11
2.39299e-11
2.39187e-11
2.38882e-11
2.38852e-11
2.38305e-11
2.37845e-11
2.37486e-11
2.36951e-11
2.36384e-11
2.36054e-11
2.35721e-11
2.35643e-11
2.3537e-11
2.34533e-11
2.34108e-11
2.33791e-11
2.33288e-11
2.32929e-11
2.32656e-11
2.3222e-11
2.32187e-11
2.31919e-11
2.31495e-11
2.31523e-11
2.31159e-11
2.30334e-11
2.2956e-11
2.29172e-11
2.28622e-11
2.28362e-11
2.2776e-11
2.27353e-11
2.26896e-11
2.25823e-11
2.25481e-11
2.25016e-11
2.24126e-11
2.23545e-11
2.22725e-11
2.22196e-11
2.2163e-11
2.21069e-11
2.20325e-11
2.19372e-11
2.18698e-11
2.18251e-11
2.17455e-11
2.1661e-11
2.1602e-11
2.15282e-11
2.14315e-11
2.13553e-11
2.1265e-11
2.11729e-11
2.10869e-11
2.10221e-11
2.095e-11
2.08695e-11
2.08075e-11
2.07235e-11
2.06161e-11
2.05405e-11
2.04393e-11
2.0333e-11
2.02122e-11
2.01039e-11
1.99922e-11
1.98657e-11
1.97374e-11
1.96288e-11
1.94941e-11
1.9341e-11
1.91861e-11
1.90702e-11
1.8968e-11
1.88529e-11
1.86897e-11
1.85562e-11
1.843e-11
1.83088e-11
1.8126e-11
1.79434e-11
1.77666e-11
1.76111e-11
1.74052e-11
1.72122e-11
1.70198e-11
1.68203e-11
1.65887e-11
1.63764e-11
1.61878e-11
1.60051e-11
1.58118e-11
1.56596e-11
1.55802e-11
1.59315e-11
1.59664e-11
1.60375e-11
1.60954e-11
1.62293e-11
1.64089e-11
1.65476e-11
1.67321e-11
1.6877e-11
1.69846e-11
1.71603e-11
1.73824e-11
1.75805e-11
1.77283e-11
1.78257e-11
1.79916e-11
1.80913e-11
1.82053e-11
1.82732e-11
1.8399e-11
1.8522e-11
1.86217e-11
1.87145e-11
1.88691e-11
1.89737e-11
1.90598e-11
1.91311e-11
1.92313e-11
1.93194e-11
1.94127e-11
1.94726e-11
1.95387e-11
1.95838e-11
1.96122e-11
1.97038e-11
1.97928e-11
1.98663e-11
1.99125e-11
1.99834e-11
2.00629e-11
2.00762e-11
2.01072e-11
2.01608e-11
2.02055e-11
2.02532e-11
2.02919e-11
2.03848e-11