/*--------------------------------*- C++ -*----------------------------------*\
| =========                 |                                                 |
| \\      /  F ield         | OpenFOAM: The Open Source CFD Toolbox           |
|  \\    /   O peration     | Version:  2406                                  |
|   \\  /    A nd           | Website:  www.openfoam.com                      |
|    \\/     M anipulation  |                                                 |
\*---------------------------------------------------------------------------*/
FoamFile
{
    version     2.0;
    format      ascii;
    arch        "LSB;label=32;scalar=64";
    class       surfaceScalarField;
    location    "13";
    object      phi;
}
// * * * * * * * * * * * * * * * * * * * * * * * * * * * * * * * * * * * * * //

dimensions      [0 3 -1 0 0 0 0];

oriented        oriented;

internalField   nonuniform List<scalar> 
59600
(
0.000249664
-5.9571e-17
0.000249664
-2.34338e-17
0.000249664
-8.94213e-18
0.000249664
-4.47515e-18
0.000249664
-2.56897e-18
0.000249664
-1.63092e-18
0.000249664
-1.05529e-18
0.000249664
-7.22375e-19
0.000249664
-5.78475e-19
0.000249664
-5.10542e-19
0.000249664
-4.1962e-19
0.000249664
-3.51774e-19
0.000249664
-2.88432e-19
0.000249664
-2.04163e-19
0.000249664
-2.32768e-19
0.000249664
-2.19454e-19
0.000249664
-2.76094e-19
0.000249664
-1.81458e-19
0.000249664
-2.65174e-19
0.000249664
2.01558e-20
0.000249664
-2.40358e-21
0.000249664
-9.93765e-20
0.000249664
1.13206e-19
0.000249664
1.69496e-21
0.000249664
-4.93587e-20
0.000249664
-5.55357e-20
0.000249664
-6.10206e-21
0.000249664
-1.37376e-20
0.000249664
-1.58235e-19
0.000249664
-1.66218e-19
0.000249664
-7.2677e-20
0.000249664
-1.13405e-19
0.000249664
-2.27281e-20
0.000249664
2.77786e-19
0.000249664
-1.46325e-19
0.000249664
-1.48723e-19
0.000249664
-6.90395e-20
0.000249664
-5.16917e-20
0.000249664
1.92732e-20
0.000249664
-3.08169e-20
0.000249664
1.67471e-19
0.000249664
-1.59823e-19
0.000249664
-7.47072e-20
0.000249664
1.08335e-19
0.000249664
-1.25242e-19
0.000249664
2.15832e-19
0.000249664
2.47157e-19
0.000249664
-6.67608e-20
0.000249664
-3.70342e-20
0.000249664
7.03087e-20
0.000249664
-4.69301e-20
0.000249664
-6.22688e-20
0.000249664
-3.83402e-19
0.000249664
-2.72111e-19
0.000249664
1.65015e-19
0.000249664
-2.61803e-20
0.000249664
7.71859e-21
0.000249664
-1.14233e-19
0.000249664
-1.31067e-19
0.000249664
1.39641e-19
0.000249664
5.54703e-20
0.000249664
-6.0288e-20
0.000249664
5.27442e-20
0.000249664
2.98235e-19
0.000249664
3.6883e-20
0.000249664
2.97034e-19
0.000249664
-9.18701e-20
0.000249664
-1.41262e-19
0.000249664
2.2571e-19
0.000249664
-1.14499e-19
0.000249664
-2.16195e-19
0.000249664
2.07254e-20
0.000249664
2.65586e-19
0.000249664
-1.85363e-19
0.000249664
-2.81702e-19
0.000249664
5.04667e-19
0.000249664
1.26009e-19
0.000249664
-3.41143e-19
0.000249664
6.93105e-20
0.000249664
3.79187e-19
0.000249664
8.37838e-20
0.000249664
-4.22713e-20
0.000249664
3.28144e-19
0.000249664
5.64913e-20
0.000249664
-3.02777e-19
0.000249664
4.68895e-19
0.000249664
2.57794e-19
0.000249664
-2.25607e-19
0.000249664
5.19548e-20
0.000249664
3.46555e-20
0.000249664
1.7064e-19
0.000249664
3.87108e-19
0.000249664
1.28093e-19
0.000249664
2.9351e-20
0.000249664
3.53519e-20
0.000249664
-5.07727e-19
0.000249664
8.78561e-22
0.000249664
2.87022e-19
0.000249664
-3.76724e-19
0.000249664
-4.0414e-19
0.000249664
-4.16399e-20
0.000249664
7.02821e-20
0.000249664
-2.1183e-19
0.000249664
-6.79856e-20
0.000249664
2.28218e-19
0.000249664
-3.59439e-19
0.000249664
-2.79136e-19
0.000249664
-2.52919e-21
0.000249664
8.90726e-20
0.000249664
4.12056e-19
0.000249664
5.88922e-21
0.000249664
-4.28617e-19
0.000249664
4.37262e-20
0.000249664
5.48107e-19
0.000249664
2.29898e-19
0.000249664
-4.57842e-19
0.000249664
-4.98549e-19
0.000249664
1.57055e-19
0.000249664
3.63156e-19
0.000249664
-7.53703e-20
0.000249664
-1.29624e-19
0.000249664
1.38208e-19
0.000249664
4.94027e-19
0.000249664
4.39937e-21
0.000249664
-5.08538e-19
0.000249664
2.097e-19
0.000249664
7.7599e-20
0.000249664
-2.49396e-19
0.000249664
7.14595e-20
0.000249664
-1.47156e-19
0.000249664
-2.89458e-19
0.000249664
-1.30491e-19
0.000249664
4.49211e-19
0.000249664
-3.78632e-19
0.000249664
-3.96917e-19
0.000249664
2.43179e-19
0.000249664
2.02389e-19
0.000249664
-2.88495e-19
0.000249664
3.45223e-19
0.000249664
3.98819e-19
0.000249664
-5.40875e-19
0.000249664
-3.32427e-19
0.000249664
2.10622e-19
0.000249664
4.58689e-19
0.000249664
-2.35567e-19
0.000249664
-1.37899e-19
0.000249664
6.36093e-19
0.000249664
-1.21881e-19
0.000249664
-4.83282e-19
0.000249664
4.46953e-19
0.000249664
-4.38786e-19
0.000249664
-2.91108e-19
0.000249664
8.5396e-19
0.000249664
-3.66974e-19
0.000249664
-2.80788e-19
0.000249664
2.5008e-19
0.000249664
-6.27611e-19
0.000249664
-1.40899e-19
0.000249664
1.47196e-19
0.000249664
4.29881e-19
0.000249664
1.02291e-20
0.000249664
-2.36779e-19
0.000249664
-1.48952e-19
0.000249664
5.13485e-20
0.000249664
-1.80385e-20
0.000249664
4.34497e-21
0.000249664
2.84963e-19
0.000249664
-7.7471e-19
0.000249664
5.90062e-19
0.000249664
6.13713e-19
0.000249664
-7.85753e-19
0.000249664
5.67583e-19
0.000249664
6.94569e-19
0.000249664
-7.4617e-19
0.000249664
-1.51577e-19
0.000249664
1.62318e-19
0.000249664
3.0105e-19
0.000249664
2.65207e-20
0.000249664
-2.9421e-19
0.000249664
3.30233e-19
0.000249664
-2.40844e-19
0.000249664
-3.39905e-19
0.000249664
-1.0845e-19
0.000249664
-3.73896e-19
0.000249664
7.46459e-19
0.000249664
2.07785e-19
0.000249664
-5.32266e-19
0.000249664
2.58151e-19
0.000249664
5.43967e-20
0.000249664
-6.46812e-20
0.000249664
-3.29755e-19
0.000249664
-3.87604e-19
0.000249664
-3.71535e-19
0.000249664
6.97155e-19
0.000249664
7.75819e-19
0.000249664
8.6781e-20
0.000249664
4.87326e-19
0.000249664
2.61104e-19
0.000249664
-9.24679e-19
0.000249664
-5.25093e-19
0.000249664
5.02242e-19
0.000249664
-4.25932e-19
0.000249664
5.42665e-19
0.000249664
3.40809e-19
0.000249664
1.05331e-19
0.000249664
1.39512e-19
0.000249664
-5.78585e-19
0.000249664
-2.57337e-19
0.000249664
1.2732e-19
0.000249664
-1.09009e-19
0.000249664
3.61771e-19
0.000249664
9.5524e-20
0.000249664
-4.5012e-19
0.000249664
6.6684e-19
0.000249664
-2.70744e-19
0.000249664
-3.99985e-19
0.000249664
-1.92009e-19
0.000249664
-1.11939e-19
0.000249664
4.97264e-19
0.000249664
7.68979e-19
0.000249664
-2.21334e-19
0.000249664
-8.28407e-19
0.000249664
-3.09709e-19
0.000249664
-5.21034e-19
0.000249664
1.06133e-19
0.000249664
7.92623e-20
0.000249664
2.56311e-19
0.000249664
6.33985e-19
0.000249664
5.14388e-19
0.000249664
1.25147e-20
0.000249664
-5.39751e-19
0.000249664
-8.74726e-19
0.000249664
2.11966e-19
0.000249664
1.77083e-19
0.000249664
-4.56825e-19
0.000249664
6.95084e-19
0.000249664
3.08207e-19
0.000249664
3.95084e-19
0.000249664
-5.33692e-19
0.000249664
9.98741e-20
0.000249664
-9.35744e-20
0.000249664
-8.47397e-19
0.000249664
4.19255e-19
0.000249664
9.15784e-19
0.000249664
-4.03323e-19
0.000249664
-3.71112e-19
0.000249664
5.23975e-19
0.000249664
-4.01451e-19
0.000249664
-1.42668e-19
0.000249664
-4.63304e-19
0.000249664
8.61089e-21
0.000249664
3.35628e-19
0.000249664
1.14447e-18
0.000249664
-2.56165e-19
0.000249664
-5.85134e-19
0.000249664
5.08165e-19
0.000249664
-4.96548e-19
0.000249664
-7.70205e-19
0.000249664
3.31692e-19
0.000249664
2.82439e-20
0.000249664
3.98526e-19
0.000249664
1.12064e-18
0.000249664
-8.12486e-19
0.000249664
3.16851e-19
0.000249664
-5.38273e-19
0.000249664
-2.52963e-19
0.000249664
1.1285e-18
0.000249664
-1.19286e-18
0.000249664
-8.30192e-20
0.000249664
2.31714e-18
0.000249664
-1.04407e-18
0.000249664
-1.07652e-18
0.000249664
1.29321e-19
0.000249664
-5.67237e-19
0.000249664
1.11037e-18
0.000249664
-1.04643e-18
0.000249664
-2.76065e-19
0.000249664
1.31681e-18
0.000249664
4.52869e-19
0.000249664
-9.30415e-19
0.000249664
-8.11654e-19
0.000249664
-4.06428e-19
0.000249664
-8.69914e-20
0.000249664
5.73511e-20
0.000249664
-1.001e-18
0.000249664
9.9115e-19
0.000249664
-4.19791e-19
0.000249664
-1.22359e-18
0.000249664
4.40321e-19
0.000249664
1.81821e-19
0.000249664
-1.28118e-18
0.000249664
-4.35692e-19
0.000249664
-6.54164e-19
0.000249664
-1.04098e-18
0.000249664
1.18111e-18
0.000249664
-5.51414e-19
0.000249664
-4.17872e-18
0.000249664
-4.19667e-18
0.000249664
-8.65794e-18
-2.40573e-17
0.000738993
-3.08615e-17
0.000738993
-2.15277e-17
0.000738993
-1.25286e-17
0.000738993
-7.62113e-18
0.000738993
-4.94749e-18
0.000738993
-3.31444e-18
0.000738993
-2.40205e-18
0.000738993
-1.62274e-18
0.000738993
-1.34551e-18
0.000738993
-1.28298e-18
0.000738993
-9.76044e-19
0.000738993
-9.14877e-19
0.000738993
-9.45689e-19
0.000738993
-6.02926e-19
0.000738993
-6.8528e-19
0.000738993
-8.72231e-19
0.000738993
-8.00462e-19
0.000738993
-6.11566e-19
0.000738993
-4.01802e-19
0.000738993
-4.58026e-20
0.000738993
-1.46994e-19
0.000738993
-5.6743e-20
0.000738993
-4.2998e-21
0.000738993
-9.47917e-20
0.000738993
-5.85593e-20
0.000738993
-5.44117e-20
0.000738993
-1.47123e-19
0.000738993
-8.02164e-20
0.000738993
-4.65197e-19
0.000738993
-4.78977e-19
0.000738993
-1.88268e-19
0.000738993
-8.15494e-20
0.000738993
-6.20566e-20
0.000738993
-8.15276e-20
0.000738993
-1.89532e-19
0.000738993
-1.64637e-19
0.000738993
-2.25118e-19
0.000738993
-1.24088e-19
0.000738993
1.57412e-19
0.000738993
4.22315e-20
0.000738993
2.51849e-19
0.000738993
-3.9563e-20
0.000738993
-7.15864e-20
0.000738993
1.47791e-19
0.000738993
1.25578e-19
0.000738993
3.3603e-19
0.000738993
4.87815e-19
0.000738993
-1.82408e-19
0.000738993
-1.75925e-19
0.000738993
1.77665e-19
0.000738993
-3.36443e-19
0.000738993
-7.19841e-19
0.000738993
-8.512e-19
0.000738993
-3.10834e-19
0.000738993
1.15091e-19
0.000738993
-2.21587e-19
0.000738993
3.0214e-20
0.000738993
-3.36129e-19
0.000738993
-2.33749e-19
0.000738993
2.47589e-19
0.000738993
1.11731e-20
0.000738993
6.74831e-20
0.000738993
1.67094e-19
0.000738993
8.9299e-19
0.000738993
6.52156e-19
0.000738993
3.45567e-19
0.000738993
-2.06264e-19
0.000738993
-1.56197e-19
0.000738993
8.01394e-20
0.000738993
-2.69939e-19
0.000738993
-2.83717e-19
0.000738993
1.33816e-21
0.000738993
4.93717e-19
0.000738993
-3.89639e-19
0.000738993
-3.81809e-19
0.000738993
9.80981e-19
0.000738993
4.99306e-19
0.000738993
-2.27852e-19
0.000738993
3.32374e-19
0.000738993
5.33607e-19
0.000738993
4.96559e-19
0.000738993
1.35071e-19
0.000738993
2.58348e-19
0.000738993
1.18953e-19
0.000738993
9.06305e-20
0.000738993
1.03693e-18
0.000738993
3.97612e-19
0.000738993
2.51636e-19
0.000738993
2.79015e-19
0.000738993
3.50809e-19
0.000738993
5.85321e-19
0.000738993
6.67173e-19
0.000738993
5.65224e-19
0.000738993
2.89629e-19
0.000738993
1.12558e-19
0.000738993
-8.8618e-19
0.000738993
-1.96467e-19
0.000738993
5.31166e-19
0.000738993
-7.95091e-19
0.000738993
-9.99807e-19
0.000738993
7.96381e-20
0.000738993
1.9951e-19
0.000738993
-1.19853e-19
0.000738993
-1.2837e-19
0.000738993
-2.48353e-20
0.000738993
-5.13712e-19
0.000738993
-6.53843e-19
0.000738993
-3.245e-19
0.000738993
3.88982e-19
0.000738993
7.26627e-19
0.000738993
-1.51305e-21
0.000738993
-7.15424e-19
0.000738993
-1.58837e-19
0.000738993
1.27972e-18
0.000738993
6.7493e-19
0.000738993
-1.18424e-18
0.000738993
-7.79883e-19
0.000738993
6.97304e-19
0.000738993
6.62138e-19
0.000738993
-9.43269e-20
0.000738993
-2.33894e-19
0.000738993
4.58745e-19
0.000738993
9.48727e-19
0.000738993
-8.55083e-20
0.000738993
-5.85987e-19
0.000738993
3.3944e-19
0.000738993
-4.22701e-19
0.000738993
-6.27578e-19
0.000738993
-1.27486e-19
0.000738993
-5.00354e-19
0.000738993
-3.03458e-19
0.000738993
-1.16763e-19
0.000738993
5.48354e-19
0.000738993
-5.94551e-19
0.000738993
-3.74071e-19
0.000738993
4.65729e-19
0.000738993
-5.24759e-20
0.000738993
-4.3834e-19
0.000738993
5.58788e-19
0.000738993
6.84449e-19
0.000738993
-6.30776e-19
0.000738993
-6.43861e-19
0.000738993
5.77495e-19
0.000738993
1.05338e-18
0.000738993
-5.68123e-19
0.000738993
7.43478e-20
0.000738993
1.3986e-18
0.000738993
-2.34517e-20
0.000738993
-1.13442e-18
0.000738993
5.31202e-20
0.000738993
-6.50038e-19
0.000738993
-1.95432e-19
0.000738993
1.12826e-18
0.000738993
-5.82887e-19
0.000738993
-5.372e-19
0.000738993
1.77758e-19
0.000738993
-8.01733e-19
0.000738993
-5.08243e-19
0.000738993
1.1271e-20
0.000738993
8.12708e-19
0.000738993
-9.75581e-20
0.000738993
-5.31611e-19
0.000738993
8.7374e-20
0.000738993
1.27022e-19
0.000738993
-4.89993e-20
0.000738993
6.71174e-20
0.000738993
4.29308e-20
0.000738993
-8.97272e-19
0.000738993
6.75003e-19
0.000738993
1.35637e-18
0.000738993
-2.38842e-19
0.000738993
5.06379e-19
0.000738993
1.06173e-18
0.000738993
-1.62029e-19
0.000738993
-7.75756e-19
0.000738993
4.13997e-20
0.000738993
9.44672e-19
0.000738993
-3.98754e-19
0.000738993
-5.23176e-19
0.000738993
7.94953e-19
0.000738993
-3.08404e-19
0.000738993
-7.06736e-19
0.000738993
-7.83742e-19
0.000738993
-5.79275e-19
0.000738993
1.22141e-18
0.000738993
4.95384e-19
0.000738993
-7.01488e-19
0.000738993
1.77924e-19
0.000738993
2.96107e-19
0.000738993
-2.28694e-19
0.000738993
-7.76717e-19
0.000738993
-8.36885e-19
0.000738993
-1.6044e-19
0.000738993
1.55695e-18
0.000738993
9.43178e-19
0.000738993
8.79306e-19
0.000738993
1.48012e-18
0.000738993
-3.41218e-19
0.000738993
-1.4371e-18
0.000738993
-3.8015e-19
0.000738993
2.55228e-19
0.000738993
-6.60437e-19
0.000738993
1.29867e-18
0.000738993
5.91031e-19
0.000738993
3.95228e-19
0.000738993
1.04937e-18
0.000738993
-1.47248e-18
0.000738993
-1.29148e-18
0.000738993
3.41438e-19
0.000738993
3.8339e-19
0.000738993
5.0586e-19
0.000738993
5.07025e-19
0.000738993
-5.99243e-19
0.000738993
3.9285e-19
0.000738993
-5.88201e-19
0.000738993
-4.49709e-19
0.000738993
-8.88571e-19
0.000738993
-1.46726e-19
0.000738993
1.5538e-18
0.000738993
9.00395e-19
0.000738993
-8.17954e-19
0.000738993
-1.40894e-18
0.000738993
-2.62933e-19
0.000738993
-9.67793e-19
0.000738993
9.85636e-21
0.000738993
2.67141e-22
0.000738993
1.87392e-19
0.000738993
1.46814e-18
0.000738993
1.52471e-18
0.000738993
-3.48155e-19
0.000738993
-5.12907e-19
0.000738993
-8.57978e-19
0.000738993
-6.50986e-19
0.000738993
5.85188e-19
0.000738993
-2.16476e-19
0.000738993
7.69274e-19
0.000738993
9.66505e-19
0.000738993
2.27249e-19
0.000738993
-4.66942e-19
0.000738993
1.76444e-19
0.000738993
-5.45791e-19
0.000738993
-1.24363e-18
0.000738993
1.09615e-19
0.000738993
1.44715e-18
0.000738993
1.36303e-19
0.000738993
-7.54638e-19
0.000738993
3.93055e-19
0.000738993
-4.03656e-19
0.000738993
-2.9153e-19
0.000738993
-2.15272e-19
0.000738993
-3.23741e-20
0.000738993
4.03749e-19
0.000738993
1.36556e-18
0.000738993
-4.15152e-20
0.000738993
-1.00644e-18
0.000738993
6.1766e-19
0.000738993
-3.08717e-19
0.000738993
-1.06411e-18
0.000738993
8.1846e-20
0.000738993
-2.8216e-19
0.000738993
1.16886e-18
0.000738993
2.17081e-18
0.000738993
-4.04093e-19
0.000738993
2.14626e-20
0.000738993
-1.57022e-18
0.000738993
-9.6293e-19
0.000738993
2.30726e-18
0.000738993
-1.20957e-18
0.000738993
-1.16706e-19
0.000738993
3.95187e-18
0.000738993
-1.19723e-18
0.000738993
-2.39831e-18
0.000738993
-5.8394e-19
0.000738993
-8.11636e-19
0.000738993
1.03589e-18
0.000738993
-9.791e-19
0.000738993
-3.79018e-19
0.000738993
1.85223e-18
0.000738993
8.51065e-19
0.000738993
-9.01734e-19
0.000738993
-1.7011e-18
0.000738993
-1.9569e-18
0.000738993
-3.46003e-19
0.000738993
6.95515e-19
0.000738993
-2.05211e-18
0.000738993
8.3606e-19
0.000738993
-1.40418e-19
0.000738993
-2.60686e-18
0.000738993
4.69072e-19
0.000738993
-3.3853e-19
0.000738993
-2.75082e-18
0.000738993
-9.55886e-19
0.000738993
-1.15975e-18
0.000738993
-1.39753e-18
0.000738993
1.80324e-18
0.000738993
-1.89414e-18
0.000738993
-6.7626e-18
0.000738993
-6.9202e-18
0.000738993
-1.24338e-17
-2.19042e-17
0.00121832
-2.05532e-17
0.00121832
-1.75674e-17
0.00121832
-1.26478e-17
0.00121832
-9.17067e-18
0.00121832
-6.48246e-18
0.00121832
-4.64927e-18
0.00121832
-3.66503e-18
0.00121832
-2.78771e-18
0.00121832
-1.98661e-18
0.00121832
-1.87034e-18
0.00121832
-2.19707e-18
0.00121832
-1.84098e-18
0.00121832
-1.71732e-18
0.00121832
-1.60763e-18
0.00121832
-1.69042e-18
0.00121832
-1.71756e-18
0.00121832
-1.38641e-18
0.00121832
-1.15987e-18
0.00121832
-7.11433e-19
0.00121832
-3.02759e-19
0.00121832
-1.08514e-19
0.00121832
-1.27686e-19
0.00121832
-1.77519e-19
0.00121832
-4.54751e-19
0.00121832
-2.8461e-19
0.00121832
-1.75036e-19
0.00121832
-3.3284e-19
0.00121832
-3.39972e-19
0.00121832
-6.89608e-19
0.00121832
-6.96934e-19
0.00121832
-7.68042e-19
0.00121832
-5.2375e-19
0.00121832
-4.25315e-19
0.00121832
-3.42169e-19
0.00121832
-8.62859e-20
0.00121832
-2.37215e-20
0.00121832
-5.85011e-19
0.00121832
6.03544e-21
0.00121832
2.87462e-19
0.00121832
7.9259e-20
0.00121832
2.66702e-19
0.00121832
1.92513e-19
0.00121832
1.19572e-19
0.00121832
2.49442e-19
0.00121832
2.76831e-19
0.00121832
1.71835e-19
0.00121832
2.39723e-19
0.00121832
-3.87376e-19
0.00121832
-4.04085e-19
0.00121832
-7.28e-20
0.00121832
-6.5649e-19
0.00121832
-1.13541e-18
0.00121832
-1.03332e-18
0.00121832
-4.83017e-19
0.00121832
-3.29256e-20
0.00121832
-5.2982e-19
0.00121832
7.32703e-20
0.00121832
-3.49219e-19
0.00121832
-4.47973e-19
0.00121832
6.58885e-21
0.00121832
-1.24673e-19
0.00121832
3.31477e-19
0.00121832
5.25169e-19
0.00121832
1.08163e-18
0.00121832
1.09442e-18
0.00121832
7.75838e-19
0.00121832
-1.59906e-19
0.00121832
-5.21759e-19
0.00121832
1.31696e-19
0.00121832
-1.01434e-19
0.00121832
-3.77359e-19
0.00121832
6.71787e-20
0.00121832
7.42605e-19
0.00121832
2.96979e-21
0.00121832
-2.60399e-19
0.00121832
1.23884e-18
0.00121832
1.36281e-18
0.00121832
1.06907e-19
0.00121832
2.95373e-19
0.00121832
1.02619e-18
0.00121832
1.27306e-18
0.00121832
7.02603e-19
0.00121832
4.65936e-19
0.00121832
1.58959e-19
0.00121832
5.96309e-19
0.00121832
1.19567e-18
0.00121832
1.07204e-18
0.00121832
1.01967e-18
0.00121832
5.99801e-19
0.00121832
6.89903e-19
0.00121832
1.29899e-18
0.00121832
1.10642e-18
0.00121832
1.14757e-18
0.00121832
1.09644e-18
0.00121832
2.05466e-19
0.00121832
-9.42751e-19
0.00121832
-3.38919e-19
0.00121832
5.00144e-19
0.00121832
-1.01689e-18
0.00121832
-1.4693e-18
0.00121832
4.67182e-19
0.00121832
4.95783e-19
0.00121832
-1.78321e-19
0.00121832
-5.64533e-19
0.00121832
-3.3573e-19
0.00121832
-4.92816e-19
0.00121832
-1.01775e-18
0.00121832
-7.92795e-19
0.00121832
8.63005e-19
0.00121832
1.15095e-18
0.00121832
-1.30885e-19
0.00121832
-6.67431e-19
0.00121832
-3.63093e-19
0.00121832
1.14561e-18
0.00121832
8.29226e-19
0.00121832
-9.91372e-19
0.00121832
-8.23382e-19
0.00121832
8.18037e-19
0.00121832
6.37277e-19
0.00121832
3.74863e-20
0.00121832
-1.27035e-19
0.00121832
8.16511e-19
0.00121832
1.08851e-18
0.00121832
6.14225e-21
0.00121832
-3.8482e-19
0.00121832
-2.03225e-19
0.00121832
-6.08577e-19
0.00121832
-6.03831e-19
0.00121832
-3.47566e-19
0.00121832
-6.67908e-19
0.00121832
-1.57673e-19
0.00121832
-1.78978e-19
0.00121832
3.15257e-19
0.00121832
-3.36235e-19
0.00121832
-4.43002e-19
0.00121832
2.56743e-19
0.00121832
-4.09914e-19
0.00121832
-3.01659e-19
0.00121832
9.70301e-19
0.00121832
9.02531e-19
0.00121832
-5.25608e-19
0.00121832
-8.84895e-19
0.00121832
1.25664e-18
0.00121832
1.41884e-18
0.00121832
-1.25419e-18
0.00121832
-4.32053e-19
0.00121832
2.0599e-18
0.00121832
-1.97988e-19
0.00121832
-1.48682e-18
0.00121832
-3.12749e-20
0.00121832
-8.45159e-19
0.00121832
4.73966e-19
0.00121832
1.09126e-18
0.00121832
-7.90796e-19
0.00121832
-3.29374e-19
0.00121832
-2.36666e-19
0.00121832
-9.31355e-19
0.00121832
-9.17778e-19
0.00121832
-5.76906e-19
0.00121832
1.32514e-18
0.00121832
5.61036e-19
0.00121832
-4.73029e-19
0.00121832
-2.18056e-19
0.00121832
-1.34966e-19
0.00121832
2.66458e-20
0.00121832
-4.92508e-20
0.00121832
7.15254e-21
0.00121832
-5.46696e-19
0.00121832
1.30949e-18
0.00121832
1.8875e-18
0.00121832
5.27777e-19
0.00121832
4.18539e-19
0.00121832
9.00032e-19
0.00121832
-4.75403e-20
0.00121832
-1.00769e-18
0.00121832
1.78536e-19
0.00121832
1.1158e-18
0.00121832
-8.08114e-19
0.00121832
-6.91848e-19
0.00121832
1.16257e-18
0.00121832
4.88716e-20
0.00121832
-1.14341e-18
0.00121832
-6.96387e-19
0.00121832
-6.88385e-19
0.00121832
6.247e-19
0.00121832
3.12285e-19
0.00121832
-5.00201e-19
0.00121832
3.34816e-20
0.00121832
1.10893e-18
0.00121832
-2.11328e-19
0.00121832
-1.13242e-18
0.00121832
-1.26397e-18
0.00121832
3.43036e-19
0.00121832
2.49095e-18
0.00121832
1.23457e-18
0.00121832
1.55591e-18
0.00121832
2.1734e-18
0.00121832
-9.78553e-19
0.00121832
-1.84121e-18
0.00121832
-1.10394e-19
0.00121832
1.55061e-19
0.00121832
-6.09259e-19
0.00121832
2.00057e-18
0.00121832
9.94143e-19
0.00121832
1.24312e-18
0.00121832
1.61336e-18
0.00121832
-1.94247e-18
0.00121832
-1.97747e-18
0.00121832
-1.47125e-19
0.00121832
7.01452e-19
0.00121832
5.84111e-19
0.00121832
3.39947e-19
0.00121832
-5.26645e-19
0.00121832
3.82515e-19
0.00121832
-1.16924e-18
0.00121832
-6.6195e-19
0.00121832
-1.3221e-18
0.00121832
-1.98391e-19
0.00121832
2.14552e-18
0.00121832
8.01594e-19
0.00121832
-1.16777e-18
0.00121832
-1.54799e-18
0.00121832
-4.12895e-19
0.00121832
-8.10736e-19
0.00121832
-2.4905e-19
0.00121832
-4.92835e-19
0.00121832
2.36577e-19
0.00121832
1.89226e-18
0.00121832
2.20192e-18
0.00121832
-1.64696e-19
0.00121832
-3.59912e-19
0.00121832
-7.74113e-19
0.00121832
-8.48771e-19
0.00121832
6.18082e-19
0.00121832
-7.11583e-20
0.00121832
1.143e-18
0.00121832
1.65279e-18
0.00121832
7.75696e-20
0.00121832
-2.26632e-19
0.00121832
-3.84319e-19
0.00121832
-9.92701e-19
0.00121832
-9.63704e-19
0.00121832
-3.26645e-19
0.00121832
1.74944e-18
0.00121832
6.37944e-19
0.00121832
-6.31129e-19
0.00121832
4.55003e-19
0.00121832
-1.69606e-19
0.00121832
2.79196e-20
0.00121832
3.70903e-19
0.00121832
-2.45335e-19
0.00121832
-4.17153e-20
0.00121832
1.43116e-18
0.00121832
-1.24329e-19
0.00121832
-1.57024e-18
0.00121832
1.77325e-19
0.00121832
4.92593e-19
0.00121832
-3.97627e-19
0.00121832
-2.90927e-19
0.00121832
-6.01447e-19
0.00121832
1.81893e-18
0.00121832
2.94411e-18
0.00121832
-5.33454e-21
0.00121832
2.22524e-20
0.00121832
-2.28198e-18
0.00121832
-1.98722e-18
0.00121832
2.81937e-18
0.00121832
-2.50085e-20
0.00121832
5.67941e-20
0.00121832
3.77226e-18
0.00121832
-1.03835e-18
0.00121832
-2.56294e-18
0.00121832
-3.17977e-19
0.00121832
-1.25991e-18
0.00121832
-7.52381e-19
0.00121832
1.77796e-19
0.00121832
8.22356e-20
0.00121832
1.12051e-18
0.00121832
9.37479e-19
0.00121832
-7.19881e-19
0.00121832
-2.57276e-18
0.00121832
-3.44649e-18
0.00121832
-3.00597e-19
0.00121832
1.18344e-18
0.00121832
-2.96568e-18
0.00121832
5.82699e-19
0.00121832
1.16079e-19
0.00121832
-4.18266e-18
0.00121832
1.26195e-19
0.00121832
-1.12606e-18
0.00121832
-4.59904e-18
0.00121832
-1.61486e-18
0.00121832
-9.1051e-19
0.00121832
-1.76089e-18
0.00121832
1.52419e-18
0.00121832
-3.34332e-18
0.00121832
-8.4349e-18
0.00121832
-7.56135e-18
0.00121832
-1.22885e-17
-1.73745e-17
0.00168765
-1.53972e-17
0.00168765
-1.41865e-17
0.00168765
-1.21986e-17
0.00168765
-9.60543e-18
0.00168765
-7.25191e-18
0.00168765
-6.05922e-18
0.00168765
-4.49791e-18
0.00168765
-3.72879e-18
0.00168765
-3.38143e-18
0.00168765
-3.15273e-18
0.00168765
-2.92157e-18
0.00168765
-2.71043e-18
0.00168765
-2.59171e-18
0.00168765
-2.64816e-18
0.00168765
-2.49754e-18
0.00168765
-2.65429e-18
0.00168765
-2.59908e-18
0.00168765
-2.39929e-18
0.00168765
-1.15213e-18
0.00168765
-7.33715e-19
0.00168765
-5.28468e-19
0.00168765
-5.98475e-19
0.00168765
-1.40515e-19
0.00168765
-4.48426e-19
0.00168765
-6.70711e-19
0.00168765
-5.35543e-19
0.00168765
-6.48428e-19
0.00168765
-4.97477e-19
0.00168765
-1.04488e-18
0.00168765
-1.17373e-18
0.00168765
-1.20121e-18
0.00168765
-1.06764e-18
0.00168765
-4.56263e-19
0.00168765
1.95917e-19
0.00168765
-1.06021e-19
0.00168765
-4.04569e-19
0.00168765
-5.70486e-19
0.00168765
-2.13139e-19
0.00168765
4.07514e-19
0.00168765
2.91372e-19
0.00168765
3.83293e-19
0.00168765
-1.24886e-20
0.00168765
4.32299e-19
0.00168765
3.69468e-19
0.00168765
2.58672e-19
0.00168765
6.52669e-19
0.00168765
-2.93186e-20
0.00168765
-8.60439e-19
0.00168765
-6.78371e-19
0.00168765
-5.69158e-19
0.00168765
-1.12068e-18
0.00168765
-1.56824e-18
0.00168765
-1.65283e-18
0.00168765
-8.16518e-19
0.00168765
-4.43326e-19
0.00168765
-4.19984e-19
0.00168765
-5.0812e-19
0.00168765
-6.09009e-19
0.00168765
-3.72806e-19
0.00168765
-3.62803e-19
0.00168765
-1.74123e-19
0.00168765
6.07579e-19
0.00168765
1.1592e-18
0.00168765
1.3673e-18
0.00168765
1.49576e-18
0.00168765
9.22997e-19
0.00168765
-1.10245e-19
0.00168765
-3.76371e-19
0.00168765
6.45658e-20
0.00168765
-5.58569e-20
0.00168765
-1.50568e-19
0.00168765
1.22133e-19
0.00168765
1.33097e-18
0.00168765
7.3467e-19
0.00168765
-5.16633e-20
0.00168765
1.39152e-18
0.00168765
1.42032e-18
0.00168765
4.24763e-19
0.00168765
1.26193e-19
0.00168765
1.85168e-18
0.00168765
2.13938e-18
0.00168765
1.40808e-18
0.00168765
1.13319e-18
0.00168765
8.23357e-19
0.00168765
8.97009e-19
0.00168765
1.12905e-18
0.00168765
1.31234e-18
0.00168765
1.75698e-18
0.00168765
1.03791e-18
0.00168765
1.37694e-18
0.00168765
2.32428e-18
0.00168765
2.03171e-18
0.00168765
2.06238e-18
0.00168765
1.416e-18
0.00168765
-1.32629e-19
0.00168765
-7.77198e-19
0.00168765
3.0106e-19
0.00168765
8.38268e-19
0.00168765
-8.77211e-19
0.00168765
-1.52778e-18
0.00168765
4.90971e-19
0.00168765
3.90413e-19
0.00168765
-3.35762e-19
0.00168765
-8.1581e-19
0.00168765
-4.18711e-19
0.00168765
-3.98381e-19
0.00168765
-1.06729e-18
0.00168765
-8.88991e-19
0.00168765
1.05753e-18
0.00168765
1.10212e-18
0.00168765
-3.92452e-19
0.00168765
-4.57543e-19
0.00168765
-2.89956e-20
0.00168765
1.38713e-18
0.00168765
7.4509e-19
0.00168765
-6.38652e-19
0.00168765
-6.84622e-19
0.00168765
6.00019e-19
0.00168765
5.77874e-19
0.00168765
7.24838e-20
0.00168765
-1.34762e-19
0.00168765
5.63057e-19
0.00168765
1.09881e-18
0.00168765
2.74662e-19
0.00168765
-9.07137e-20
0.00168765
-2.79903e-19
0.00168765
-5.25571e-19
0.00168765
-1.02465e-18
0.00168765
-9.46864e-19
0.00168765
-5.15439e-19
0.00168765
-1.70456e-19
0.00168765
1.40302e-19
0.00168765
4.46138e-19
0.00168765
-2.27214e-19
0.00168765
-4.64732e-19
0.00168765
6.32742e-19
0.00168765
-5.38497e-19
0.00168765
2.45283e-19
0.00168765
1.56385e-18
0.00168765
4.02041e-19
0.00168765
-5.66531e-19
0.00168765
-6.45825e-19
0.00168765
1.66581e-18
0.00168765
1.61676e-18
0.00168765
-1.4689e-18
0.00168765
-3.22827e-19
0.00168765
2.4744e-18
0.00168765
-6.28712e-19
0.00168765
-1.69764e-18
0.00168765
-3.7977e-19
0.00168765
-3.68768e-19
0.00168765
7.00778e-19
0.00168765
8.52152e-19
0.00168765
-9.52285e-19
0.00168765
-4.66534e-19
0.00168765
-2.00671e-19
0.00168765
-1.4797e-18
0.00168765
-1.23941e-18
0.00168765
-7.97224e-19
0.00168765
1.46471e-18
0.00168765
1.18289e-18
0.00168765
-8.62073e-20
0.00168765
-9.24841e-19
0.00168765
-4.94462e-19
0.00168765
2.4254e-19
0.00168765
-5.7743e-20
0.00168765
-5.27067e-20
0.00168765
-1.54508e-19
0.00168765
1.94518e-18
0.00168765
2.40853e-18
0.00168765
1.99611e-19
0.00168765
3.68398e-19
0.00168765
8.09242e-19
0.00168765
1.67277e-20
0.00168765
-7.14384e-19
0.00168765
5.32364e-19
0.00168765
8.42259e-19
0.00168765
-6.12631e-19
0.00168765
-1.06598e-18
0.00168765
1.19046e-18
0.00168765
1.87601e-19
0.00168765
-1.62626e-18
0.00168765
-5.71748e-19
0.00168765
-2.20191e-19
0.00168765
2.16151e-19
0.00168765
2.88031e-19
0.00168765
-1.26905e-19
0.00168765
-5.6699e-19
0.00168765
8.29112e-19
0.00168765
4.89834e-19
0.00168765
-1.15194e-18
0.00168765
-7.88789e-19
0.00168765
9.72333e-19
0.00168765
2.50648e-18
0.00168765
1.68035e-18
0.00168765
1.48592e-18
0.00168765
2.19103e-18
0.00168765
-2.25387e-19
0.00168765
-1.73465e-18
0.00168765
2.74285e-19
0.00168765
5.39616e-19
0.00168765
-2.48652e-19
0.00168765
1.92151e-18
0.00168765
1.46141e-18
0.00168765
1.95636e-18
0.00168765
1.94349e-18
0.00168765
-1.82796e-18
0.00168765
-2.36531e-18
0.00168765
-2.31965e-19
0.00168765
2.85799e-19
0.00168765
6.41481e-19
0.00168765
4.2404e-19
0.00168765
-3.07412e-19
0.00168765
2.31418e-19
0.00168765
-2.30101e-18
0.00168765
-4.39226e-19
0.00168765
-1.38263e-18
0.00168765
-5.0881e-19
0.00168765
2.27782e-18
0.00168765
7.85459e-19
0.00168765
-1.37918e-18
0.00168765
-1.41007e-18
0.00168765
-4.12186e-19
0.00168765
-6.13118e-19
0.00168765
-4.70553e-19
0.00168765
-8.40177e-19
0.00168765
6.49464e-19
0.00168765
1.50116e-18
0.00168765
2.49727e-18
0.00168765
2.24607e-19
0.00168765
1.5132e-19
0.00168765
-5.92438e-19
0.00168765
-5.46633e-19
0.00168765
6.30824e-19
0.00168765
7.60056e-20
0.00168765
1.26516e-18
0.00168765
1.49132e-18
0.00168765
-1.20227e-19
0.00168765
-7.46775e-20
0.00168765
-5.49513e-19
0.00168765
-5.17497e-19
0.00168765
-9.0392e-19
0.00168765
-6.43543e-19
0.00168765
2.37957e-18
0.00168765
8.26977e-19
0.00168765
3.12635e-19
0.00168765
1.13817e-19
0.00168765
-1.08189e-18
0.00168765
3.84947e-19
0.00168765
1.70161e-18
0.00168765
-1.03021e-19
0.00168765
6.49593e-20
0.00168765
7.1572e-19
0.00168765
7.26778e-20
0.00168765
-6.36191e-19
0.00168765
-8.73526e-19
0.00168765
1.86303e-19
0.00168765
-9.58239e-20
0.00168765
-3.31003e-19
0.00168765
-1.26916e-18
0.00168765
2.61477e-18
0.00168765
4.22075e-18
0.00168765
1.48673e-19
0.00168765
-1.53947e-19
0.00168765
-2.40141e-18
0.00168765
-2.51699e-18
0.00168765
3.03325e-18
0.00168765
1.21852e-18
0.00168765
9.41838e-20
0.00168765
3.63936e-18
0.00168765
-1.60758e-18
0.00168765
-3.04321e-18
0.00168765
1.50144e-19
0.00168765
-1.85256e-18
0.00168765
-1.797e-18
0.00168765
1.42385e-18
0.00168765
3.1581e-19
0.00168765
-3.99434e-19
0.00168765
1.05515e-18
0.00168765
-6.73015e-19
0.00168765
-3.0019e-18
0.00168765
-4.40972e-18
0.00168765
-3.24105e-19
0.00168765
8.9767e-19
0.00168765
-4.0716e-18
0.00168765
-5.10489e-20
0.00168765
1.63267e-19
0.00168765
-5.51187e-18
0.00168765
-8.60779e-19
0.00168765
-1.40166e-18
0.00168765
-6.20089e-18
0.00168765
-2.76639e-18
0.00168765
-4.48754e-19
0.00168765
-2.76604e-18
0.00168765
3.72562e-19
0.00168765
-3.41994e-18
0.00168765
-8.94265e-18
0.00168765
-7.09435e-18
0.00168765
-1.0541e-17
-1.42587e-17
0.00214699
-1.26307e-17
0.00214699
-1.25996e-17
0.00214699
-1.16707e-17
0.00214699
-1.00984e-17
0.00214699
-8.26153e-18
0.00214699
-6.41053e-18
0.00214699
-5.30338e-18
0.00214699
-4.65374e-18
0.00214699
-4.31646e-18
0.00214699
-3.90157e-18
0.00214699
-3.57996e-18
0.00214699
-4.08934e-18
0.00214699
-4.56158e-18
0.00214699
-3.74532e-18
0.00214699