/*--------------------------------*- C++ -*----------------------------------*\
| =========                 |                                                 |
| \\      /  F ield         | OpenFOAM: The Open Source CFD Toolbox           |
|  \\    /   O peration     | Version:  2406                                  |
|   \\  /    A nd           | Website:  www.openfoam.com                      |
|    \\/     M anipulation  |                                                 |
\*---------------------------------------------------------------------------*/
FoamFile
{
    version     2.0;
    format      ascii;
    arch        "LSB;label=32;scalar=64";
    class       surfaceScalarField;
    location    "13";
    object      phi_0;
}
// * * * * * * * * * * * * * * * * * * * * * * * * * * * * * * * * * * * * * //

dimensions      [0 3 -1 0 0 0 0];

oriented        oriented;

internalField   nonuniform List<scalar> 
59600
(
0.000249664
-2.50047e-18
0.000249664
-2.07548e-18
0.000249664
9.06782e-20
0.000249664
2.28642e-19
0.000249664
2.16962e-19
0.000249664
1.56436e-19
0.000249664
1.70246e-19
0.000249664
1.91193e-19
0.000249664
2.02103e-19
0.000249664
8.77981e-20
0.000249664
5.64332e-20
0.000249664
4.10199e-20
0.000249664
6.2297e-20
0.000249664
6.56095e-20
0.000249664
3.75881e-20
0.000249664
-7.16847e-20
0.000249664
-5.64135e-20
0.000249664
-1.31411e-20
0.000249664
-1.39499e-19
0.000249664
1.31283e-19
0.000249664
1.34436e-19
0.000249664
1.65317e-20
0.000249664
1.29901e-19
0.000249664
5.29892e-20
0.000249664
2.19392e-20
0.000249664
5.53537e-20
0.000249664
7.62829e-20
0.000249664
3.58966e-20
0.000249664
-9.12763e-20
0.000249664
-8.90062e-20
0.000249664
1.73379e-20
0.000249664
-7.24987e-20
0.000249664
2.50868e-20
0.000249664
2.72983e-19
0.000249664
-9.16145e-20
0.000249664
-6.55419e-20
0.000249664
-1.27533e-20
0.000249664
-1.03706e-20
0.000249664
-5.27121e-21
0.000249664
-3.29561e-20
0.000249664
1.51638e-19
0.000249664
-1.78666e-19
0.000249664
-2.68511e-20
0.000249664
1.01624e-19
0.000249664
-1.02002e-19
0.000249664
2.05136e-19
0.000249664
2.24528e-19
0.000249664
-8.11652e-20
0.000249664
-3.97871e-20
0.000249664
6.42367e-20
0.000249664
-5.11506e-20
0.000249664
1.15027e-20
0.000249664
-3.70541e-19
0.000249664
-2.53156e-19
0.000249664
2.09293e-19
0.000249664
-2.95986e-20
0.000249664
3.7081e-20
0.000249664
-1.35327e-19
0.000249664
-2.05306e-19
0.000249664
1.49443e-19
0.000249664
9.68321e-20
0.000249664
-1.33011e-20
0.000249664
1.00444e-19
0.000249664
2.46047e-19
0.000249664
1.36179e-20
0.000249664
2.86076e-19
0.000249664
-8.07498e-20
0.000249664
-1.28538e-19
0.000249664
1.8915e-19
0.000249664
-6.57622e-20
0.000249664
-1.36645e-19
0.000249664
5.93668e-20
0.000249664
2.86297e-19
0.000249664
-1.83266e-19
0.000249664
-2.95039e-19
0.000249664
5.51361e-19
0.000249664
1.91938e-19
0.000249664
-2.98465e-19
0.000249664
5.63543e-20
0.000249664
3.40983e-19
0.000249664
6.97665e-20
0.000249664
-7.59835e-20
0.000249664
3.64206e-19
0.000249664
9.45161e-20
0.000249664
-2.7362e-19
0.000249664
3.93085e-19
0.000249664
2.39434e-19
0.000249664
-1.96846e-19
0.000249664
7.03644e-20
0.000249664
2.74366e-20
0.000249664
1.34864e-19
0.000249664
3.0095e-19
0.000249664
1.17241e-19
0.000249664
2.23092e-20
0.000249664
2.07649e-20
0.000249664
-5.18299e-19
0.000249664
2.34512e-20
0.000249664
3.92755e-19
0.000249664
-3.41979e-19
0.000249664
-3.79145e-19
0.000249664
-4.9031e-20
0.000249664
1.06562e-19
0.000249664
-1.5592e-19
0.000249664
-3.99337e-20
0.000249664
2.66565e-19
0.000249664
-3.47573e-19
0.000249664
-2.56158e-19
0.000249664
5.77831e-20
0.000249664
1.57646e-19
0.000249664
4.50565e-19
0.000249664
-1.02592e-21
0.000249664
-3.97361e-19
0.000249664
9.97538e-20
0.000249664
5.25784e-19
0.000249664
2.31093e-19
0.000249664
-3.98961e-19
0.000249664
-4.82592e-19
0.000249664
1.81158e-19
0.000249664
3.81746e-19
0.000249664
-6.32983e-20
0.000249664
-9.51319e-20
0.000249664
2.15481e-19
0.000249664
4.75534e-19
0.000249664
-2.51399e-21
0.000249664
-5.19003e-19
0.000249664
1.89571e-19
0.000249664
5.44953e-20
0.000249664
-2.1078e-19
0.000249664
1.0716e-19
0.000249664
-8.28116e-20
0.000249664
-2.57729e-19
0.000249664
-7.4061e-20
0.000249664
5.02444e-19
0.000249664
-4.02221e-19
0.000249664
-4.15492e-19
0.000249664
2.44247e-19
0.000249664
1.594e-19
0.000249664
-3.2116e-19
0.000249664
3.40385e-19
0.000249664
3.50068e-19
0.000249664
-6.44771e-19
0.000249664
-4.14491e-19
0.000249664
2.01747e-19
0.000249664
4.72923e-19
0.000249664
-1.94101e-19
0.000249664
-1.52399e-19
0.000249664
5.95047e-19
0.000249664
-1.06756e-19
0.000249664
-4.89313e-19
0.000249664
4.91896e-19
0.000249664
-3.88815e-19
0.000249664
-2.85007e-19
0.000249664
8.86333e-19
0.000249664
-3.25188e-19
0.000249664
-2.88479e-19
0.000249664
2.70737e-19
0.000249664
-6.12834e-19
0.000249664
-2.13631e-19
0.000249664
1.18232e-19
0.000249664
4.19074e-19
0.000249664
4.34652e-20
0.000249664
-1.9389e-19
0.000249664
-1.05628e-19
0.000249664
4.38425e-20
0.000249664
-4.93783e-20
0.000249664
1.09277e-20
0.000249664
3.09207e-19
0.000249664
-7.93543e-19
0.000249664
5.74521e-19
0.000249664
6.41985e-19
0.000249664
-8.42587e-19
0.000249664
5.10578e-19
0.000249664
6.84329e-19
0.000249664
-7.52781e-19
0.000249664
-2.13886e-19
0.000249664
1.15381e-19
0.000249664
4.06722e-19
0.000249664
7.81545e-20
0.000249664
-2.53751e-19
0.000249664
3.15387e-19
0.000249664
-2.85363e-19
0.000249664
-3.26786e-19
0.000249664
-1.31179e-19
0.000249664
-3.69879e-19
0.000249664
7.82808e-19
0.000249664
1.98259e-19
0.000249664
-5.12977e-19
0.000249664
2.89213e-19
0.000249664
3.99126e-21
0.000249664
-6.74967e-20
0.000249664
-3.10777e-19
0.000249664
-3.12291e-19
0.000249664
-3.25166e-19
0.000249664
7.13554e-19
0.000249664
8.07092e-19
0.000249664
1.97796e-19
0.000249664
5.28391e-19
0.000249664
2.85557e-19
0.000249664
-9.0346e-19
0.000249664
-5.61316e-19
0.000249664
5.01533e-19
0.000249664
-4.17274e-19
0.000249664
5.85622e-19
0.000249664
3.80194e-19
0.000249664
1.0623e-19
0.000249664
1.68984e-19
0.000249664
-5.25283e-19
0.000249664
-1.98365e-19
0.000249664
1.0595e-19
0.000249664
-1.4311e-19
0.000249664
3.9664e-19
0.000249664
1.22621e-19
0.000249664
-4.44793e-19
0.000249664
6.61183e-19
0.000249664
-2.68981e-19
0.000249664
-4.23732e-19
0.000249664
-1.80077e-19
0.000249664
-1.12652e-19
0.000249664
4.87248e-19
0.000249664
7.18687e-19
0.000249664
-1.89039e-19
0.000249664
-8.29372e-19
0.000249664
-3.29501e-19
0.000249664
-5.50342e-19
0.000249664
7.69421e-20
0.000249664
1.12871e-19
0.000249664
2.80623e-19
0.000249664
5.85717e-19
0.000249664
5.92002e-19
0.000249664
1.20888e-19
0.000249664
-4.92974e-19
0.000249664
-8.63488e-19
0.000249664
1.85398e-19
0.000249664
2.17033e-19
0.000249664
-4.18789e-19
0.000249664
7.10815e-19
0.000249664
2.83237e-19
0.000249664
3.63219e-19
0.000249664
-5.81247e-19
0.000249664
1.33113e-19
0.000249664
-5.71675e-20
0.000249664
-7.73251e-19
0.000249664
4.48596e-19
0.000249664
9.55946e-19
0.000249664
-4.66214e-19
0.000249664
-3.7576e-19
0.000249664
5.88302e-19
0.000249664
-3.14389e-19
0.000249664
-4.94904e-20
0.000249664
-3.98575e-19
0.000249664
2.24632e-20
0.000249664
3.00346e-19
0.000249664
1.06256e-18
0.000249664
-1.90017e-19
0.000249664
-5.17922e-19
0.000249664
5.7029e-19
0.000249664
-4.52328e-19
0.000249664
-7.99769e-19
0.000249664
3.01554e-19
0.000249664
-2.0031e-20
0.000249664
4.31569e-19
0.000249664
1.09896e-18
0.000249664
-7.76956e-19
0.000249664
3.10246e-19
0.000249664
-4.899e-19
0.000249664
-2.05635e-19
0.000249664
1.14414e-18
0.000249664
-1.05836e-18
0.000249664
-2.94277e-20
0.000249664
2.35265e-18
0.000249664
-9.16734e-19
0.000249664
-9.96028e-19
0.000249664
2.10579e-19
0.000249664
-5.11204e-19
0.000249664
1.17887e-18
0.000249664
-9.69552e-19
0.000249664
-2.00893e-19
0.000249664
1.37548e-18
0.000249664
5.84015e-19
0.000249664
-8.66984e-19
0.000249664
-7.20298e-19
0.000249664
-2.90572e-19
0.000249664
2.28011e-20
0.000249664
2.11225e-19
0.000249664
-7.73544e-19
0.000249664
1.2564e-18
0.000249664
-1.54612e-19
0.000249664
-9.70805e-19
0.000249664
7.19959e-19
0.000249664
5.48066e-19
0.000249664
-8.3896e-19
0.000249664
1.11676e-19
0.000249664
1.13019e-20
0.000249664
-1.24011e-19
0.000249664
2.424e-18
0.000249664
1.25965e-18
0.000249664
-1.38658e-18
0.000249664
5.60643e-19
0.000249664
4.43165e-19
-2.69412e-18
0.000738993
-2.50325e-18
0.000738993
-2.34809e-18
0.000738993
-8.42736e-19
0.000738993
-3.95089e-19
0.000738993
-2.79549e-19
0.000738993
-2.47477e-19
0.000738993
-4.28072e-20
0.000738993
1.77939e-19
0.000738993
8.10393e-20
0.000738993
-1.67094e-19
0.000738993
-7.99352e-20
0.000738993
-1.49777e-19
0.000738993
-2.09694e-19
0.000738993
-2.23394e-20
0.000738993
-3.20052e-19
0.000738993
-5.12381e-19
0.000738993
-4.53941e-19
0.000738993
-2.80443e-19
0.000738993
-1.04868e-19
0.000738993
1.9125e-19
0.000738993
1.36668e-19
0.000738993
5.35206e-20
0.000738993
8.28663e-20
0.000738993
8.97639e-20
0.000738993
1.0761e-19
0.000738993
1.70406e-19
0.000738993
1.02541e-19
0.000738993
3.65798e-20
0.000738993
-3.32357e-19
0.000738993
-2.66363e-19
0.000738993
-6.73229e-20
0.000738993
3.37837e-20
0.000738993
6.97461e-20
0.000738993
5.67825e-20
0.000738993
-1.76944e-19
0.000738993
-7.43423e-20
0.000738993
-1.05931e-19
0.000738993
-3.79397e-20
0.000738993
8.33436e-20
0.000738993
4.63321e-20
0.000738993
3.50344e-19
0.000738993
4.49875e-20
0.000738993
-2.02418e-20
0.000738993
1.20179e-19
0.000738993
2.29124e-20
0.000738993
3.67181e-19
0.000738993
4.33373e-19
0.000738993
-2.27601e-19
0.000738993
-2.04668e-19
0.000738993
7.96413e-20
0.000738993
-3.50192e-19
0.000738993
-6.63676e-19
0.000738993
-6.61479e-19
0.000738993
-2.46673e-19
0.000738993
2.02398e-19
0.000738993
-2.8261e-19
0.000738993
3.66349e-20
0.000738993
-3.60774e-19
0.000738993
-2.68903e-19
0.000738993
1.85653e-19
0.000738993
5.29291e-20
0.000738993
5.48601e-20
0.000738993
2.29663e-19
0.000738993
8.42101e-19
0.000738993
4.87664e-19
0.000738993
3.44788e-19
0.000738993
-2.20082e-19
0.000738993
-1.16087e-19
0.000738993
1.71179e-19
0.000738993
-3.06503e-19
0.000738993
-2.71302e-19
0.000738993
1.21303e-19
0.000738993
5.88078e-19
0.000738993
-2.63947e-19
0.000738993
-3.02176e-19
0.000738993
1.1335e-18
0.000738993
6.41173e-19
0.000738993
-2.35088e-19
0.000738993
3.6537e-19
0.000738993
4.71482e-19
0.000738993
4.11663e-19
0.000738993
1.70633e-19
0.000738993
3.56023e-19
0.000738993
1.00019e-19
0.000738993
4.3236e-20
0.000738993
9.77271e-19
0.000738993
3.60218e-19
0.000738993
1.9106e-19
0.000738993
2.52295e-19
0.000738993
4.11127e-19
0.000738993
6.04131e-19
0.000738993
6.8447e-19
0.000738993
5.02508e-19
0.000738993
3.12453e-19
0.000738993
1.21025e-19
0.000738993
-9.25066e-19
0.000738993
-1.40211e-19
0.000738993
7.03372e-19
0.000738993
-7.5622e-19
0.000738993
-1.10356e-18
0.000738993
1.05591e-19
0.000738993
2.19825e-19
0.000738993
-3.95323e-20
0.000738993
-1.21529e-19
0.000738993
5.64141e-20
0.000738993
-4.35e-19
0.000738993
-4.85027e-19
0.000738993
-3.72628e-19
0.000738993
4.32057e-19
0.000738993
9.30696e-19
0.000738993
4.62033e-21
0.000738993
-7.09102e-19
0.000738993
-1.07685e-19
0.000738993
1.27077e-18
0.000738993
6.99723e-19
0.000738993
-1.17966e-18
0.000738993
-7.75075e-19
0.000738993
7.38859e-19
0.000738993
6.98505e-19
0.000738993
-7.22117e-20
0.000738993
-1.30663e-19
0.000738993
5.14267e-19
0.000738993
9.56709e-19
0.000738993
3.2642e-21
0.000738993
-4.89432e-19
0.000738993
2.26196e-19
0.000738993
-5.45559e-19
0.000738993
-5.05842e-19
0.000738993
-6.0242e-21
0.000738993
-4.28681e-19
0.000738993
-2.44352e-19
0.000738993
-3.2053e-20
0.000738993
6.10601e-19
0.000738993
-5.29947e-19
0.000738993
-4.81777e-19
0.000738993
4.03765e-19
0.000738993
-4.20132e-20
0.000738993
-5.41068e-19
0.000738993
5.36679e-19
0.000738993
6.37502e-19
0.000738993
-7.18233e-19
0.000738993
-7.48674e-19
0.000738993
4.42162e-19
0.000738993
1.13654e-18
0.000738993
-6.88452e-19
0.000738993
-9.12746e-20
0.000738993
1.39373e-18
0.000738993
3.30493e-20
0.000738993
-1.0917e-18
0.000738993
1.38104e-19
0.000738993
-6.74581e-19
0.000738993
-2.41899e-19
0.000738993
1.27922e-18
0.000738993
-5.2598e-19
0.000738993
-3.50976e-19
0.000738993
2.3733e-19
0.000738993
-8.66108e-19
0.000738993
-4.80491e-19
0.000738993
-9.78013e-20
0.000738993
8.05233e-19
0.000738993
-1.20803e-19
0.000738993
-6.06454e-19
0.000738993
1.29305e-19
0.000738993
2.30257e-19
0.000738993
-8.34203e-20
0.000738993
-1.67055e-20
0.000738993
4.07826e-20
0.000738993
-9.45173e-19
0.000738993
6.55592e-19
0.000738993
1.27099e-18
0.000738993
-2.4804e-19
0.000738993
4.10862e-19
0.000738993
1.1085e-18
0.000738993
-1.52956e-19
0.000738993
-6.99899e-19
0.000738993
4.1592e-20
0.000738993
9.56432e-19
0.000738993
-2.92417e-19
0.000738993
-4.61856e-19
0.000738993
8.85565e-19
0.000738993
-3.85155e-19
0.000738993
-8.27841e-19
0.000738993
-7.77697e-19
0.000738993
-6.54118e-19
0.000738993
1.26373e-18
0.000738993
5.68122e-19
0.000738993
-6.65728e-19
0.000738993
2.26539e-19
0.000738993
3.3893e-19
0.000738993
-2.51274e-19
0.000738993
-6.4651e-19
0.000738993
-6.26384e-19
0.000738993
-7.47674e-20
0.000738993
1.68202e-18
0.000738993
8.58087e-19
0.000738993
9.32868e-19
0.000738993
1.63229e-18
0.000738993
-2.94354e-19
0.000738993
-1.36847e-18
0.000738993
-3.65065e-19
0.000738993
2.44857e-19
0.000738993
-5.59197e-19
0.000738993
1.32458e-18
0.000738993
5.70409e-19
0.000738993
4.00565e-19
0.000738993
1.12986e-18
0.000738993
-1.36932e-18
0.000738993
-1.28873e-18
0.000738993
2.52271e-19
0.000738993
3.7391e-19
0.000738993
4.60461e-19
0.000738993
5.27658e-19
0.000738993
-4.4705e-19
0.000738993
6.32661e-19
0.000738993
-6.44984e-19
0.000738993
-4.82652e-19
0.000738993
-9.16964e-19
0.000738993
-7.48401e-20
0.000738993
1.4405e-18
0.000738993
8.56482e-19
0.000738993
-8.48937e-19
0.000738993
-1.44942e-18
0.000738993
-3.58156e-19
0.000738993
-9.66632e-19
0.000738993
5.58056e-21
0.000738993
1.27531e-20
0.000738993
2.00175e-19
0.000738993
1.62511e-18
0.000738993
1.63617e-18
0.000738993
-2.49526e-19
0.000738993
-5.78635e-19
0.000738993
-8.62048e-19
0.000738993
-5.88206e-19
0.000738993
5.95242e-19
0.000738993
-2.74483e-19
0.000738993
8.58856e-19
0.000738993
8.65071e-19
0.000738993
1.82133e-19
0.000738993
-4.02447e-19
0.000738993
2.98108e-19
0.000738993
-4.17522e-19
0.000738993
-1.15709e-18
0.000738993
3.65297e-19
0.000738993
1.52434e-18
0.000738993
4.80173e-20
0.000738993
-7.04224e-19
0.000738993
5.34174e-19
0.000738993
-3.32427e-19
0.000738993
-2.21487e-19
0.000738993
-1.33803e-19
0.000738993
-6.25111e-20
0.000738993
4.06481e-19
0.000738993
1.43342e-18
0.000738993
-1.00907e-20
0.000738993
-9.36986e-19
0.000738993
7.88789e-19
0.000738993
-2.75522e-19
0.000738993
-1.02525e-18
0.000738993
7.38164e-21
0.000738993
-2.43942e-19
0.000738993
1.12915e-18
0.000738993
2.15539e-18
0.000738993
-3.72153e-19
0.000738993
2.29006e-19
0.000738993
-1.48502e-18
0.000738993
-8.62563e-19
0.000738993
2.43086e-18
0.000738993
-1.0076e-18
0.000738993
1.79796e-19
0.000738993
4.16148e-18
0.000738993
-1.08656e-18
0.000738993
-2.22079e-18
0.000738993
-3.74191e-19
0.000738993
-7.14268e-19
0.000738993
1.07928e-18
0.000738993
-8.3291e-19
0.000738993
-2.00121e-19
0.000738993
2.0442e-18
0.000738993
9.99355e-19
0.000738993
-7.6871e-19
0.000738993
-1.4974e-18
0.000738993
-1.65457e-18
0.000738993
4.85449e-20
0.000738993
1.02255e-18
0.000738993
-1.5615e-18
0.000738993
1.40498e-18
0.000738993
4.06799e-19
0.000738993
-2.04089e-18
0.000738993
1.02248e-18
0.000738993
2.59832e-19
0.000738993
-1.90286e-18
0.000738993
1.23557e-19
0.000738993
2.67835e-19
0.000738993
3.48817e-19
0.000738993
4.17721e-18
0.000738993
1.40511e-18
0.000738993
-1.94455e-18
0.000738993
2.85209e-19
0.000738993
-8.84678e-19
-3.00136e-18
0.00121832
-2.78695e-18
0.00121832
-2.62441e-18
0.00121832
-1.75329e-18
0.00121832
-1.36053e-18
0.00121832
-9.57172e-19
0.00121832
-5.60527e-19
0.00121832
-5.09281e-19
0.00121832
-2.69268e-19
0.00121832
-1.14349e-19
0.00121832
-4.03648e-19
0.00121832
-6.33956e-19
0.00121832
-6.39839e-19
0.00121832
-7.5436e-19
0.00121832
-8.66254e-19
0.00121832
-8.61853e-19
0.00121832
-1.07868e-18
0.00121832
-8.54279e-19
0.00121832
-5.90056e-19
0.00121832
-3.72898e-19
0.00121832
5.50561e-20
0.00121832
1.69803e-19
0.00121832
2.64373e-19
0.00121832
1.99154e-19
0.00121832
-1.93655e-19
0.00121832
2.15446e-20
0.00121832
6.52767e-20
0.00121832
-1.09588e-19
0.00121832
-1.4456e-19
0.00121832
-4.24268e-19
0.00121832
-3.51746e-19
0.00121832
-4.70499e-19
0.00121832
-1.74946e-19
0.00121832
-3.75804e-20
0.00121832
-1.34765e-19
0.00121832
1.20297e-20
0.00121832
-3.13522e-20
0.00121832
-4.0125e-19
0.00121832
2.47693e-20
0.00121832
4.05253e-19
0.00121832
3.7985e-20
0.00121832
2.65187e-19
0.00121832
2.02943e-19
0.00121832
-2.30002e-20
0.00121832
1.40304e-19
0.00121832
1.99959e-19
0.00121832
2.11394e-19
0.00121832
2.48193e-19
0.00121832
-4.01024e-19
0.00121832
-4.5117e-19
0.00121832
-2.03041e-19
0.00121832
-5.27339e-19
0.00121832
-8.67941e-19
0.00121832
-9.74802e-19
0.00121832
-3.53648e-19
0.00121832
1.2204e-19
0.00121832
-5.61817e-19
0.00121832
-8.57513e-20
0.00121832
-4.08893e-19
0.00121832
-3.18136e-19
0.00121832
-5.60268e-20
0.00121832
-9.8748e-20
0.00121832
3.05042e-19
0.00121832
5.04332e-19
0.00121832
1.11676e-18
0.00121832
1.0552e-18
0.00121832
6.50753e-19
0.00121832
-2.44394e-19
0.00121832
-5.28432e-19
0.00121832
1.71917e-19
0.00121832
3.71785e-20
0.00121832
-2.38898e-19
0.00121832
1.04809e-19
0.00121832
8.15208e-19
0.00121832
1.43388e-19
0.00121832
-1.36223e-19
0.00121832
1.30869e-18
0.00121832
1.25517e-18
0.00121832
2.5389e-20
0.00121832
3.20269e-19
0.00121832
1.27398e-18
0.00121832
1.26266e-18
0.00121832
7.63495e-19
0.00121832
4.20372e-19
0.00121832
1.94231e-19
0.00121832
5.69981e-19
0.00121832
1.20696e-18
0.00121832
9.69216e-19
0.00121832
9.7423e-19
0.00121832
6.27084e-19
0.00121832
6.32963e-19
0.00121832
1.30435e-18
0.00121832
1.09283e-18
0.00121832
9.88419e-19
0.00121832
9.60237e-19
0.00121832
3.01668e-19
0.00121832
-7.74994e-19
0.00121832
-3.62398e-19
0.00121832
3.10331e-19
0.00121832
-1.0232e-18
0.00121832
-1.33644e-18
0.00121832
2.67051e-19
0.00121832
4.37708e-19
0.00121832
-1.80802e-19
0.00121832
-5.11712e-19
0.00121832
-3.98398e-19
0.00121832
-4.126e-19
0.00121832
-9.55705e-19
0.00121832
-7.27296e-19
0.00121832
9.22662e-19
0.00121832
1.24645e-18
0.00121832
6.13328e-20
0.00121832
-6.15815e-19
0.00121832
-3.25762e-19
0.00121832
1.45427e-18
0.00121832
9.4507e-19
0.00121832
-9.71043e-19
0.00121832
-7.76789e-19
0.00121832
7.298e-19
0.00121832
6.1053e-19
0.00121832
1.48774e-19
0.00121832
4.88941e-21
0.00121832
8.83619e-19
0.00121832
1.1566e-18
0.00121832
-1.08884e-19
0.00121832
-4.66533e-19
0.00121832
-1.76664e-19
0.00121832
-6.71157e-19
0.00121832
-7.92436e-19
0.00121832
-3.82593e-19
0.00121832
-5.68527e-19
0.00121832
-3.0122e-20
0.00121832
-1.98647e-19
0.00121832
4.09378e-19
0.00121832
-4.20503e-19
0.00121832
-4.81292e-19
0.00121832
2.01182e-19
0.00121832
-6.24249e-19
0.00121832
-4.04752e-19
0.00121832
1.0756e-18
0.00121832
9.28484e-19
0.00121832
-5.49589e-19
0.00121832
-8.89839e-19
0.00121832
1.2428e-18
0.00121832
1.42971e-18
0.00121832
-1.30145e-18
0.00121832
-3.95228e-19
0.00121832
2.08138e-18
0.00121832
-1.11649e-19
0.00121832
-1.4124e-18
0.00121832
-1.02981e-19
0.00121832
-7.8668e-19
0.00121832
4.10493e-19
0.00121832
1.02035e-18
0.00121832
-6.20668e-19
0.00121832
-3.10415e-19
0.00121832
-3.04463e-19
0.00121832
-1.05083e-18
0.00121832
-1.12445e-18
0.00121832
-6.65238e-19
0.00121832
1.18696e-18
0.00121832
5.36998e-19
0.00121832
-3.94726e-19
0.00121832
-4.27671e-19
0.00121832
-2.97081e-19
0.00121832
1.26301e-19
0.00121832
3.10942e-20
0.00121832
-1.76148e-19
0.00121832
-5.97534e-19
0.00121832
1.21987e-18
0.00121832
1.87133e-18
0.00121832
4.26719e-19
0.00121832
3.81979e-19
0.00121832
9.30703e-19
0.00121832
1.24545e-19
0.00121832
-9.51574e-19
0.00121832
1.41e-19
0.00121832
9.64158e-19
0.00121832
-7.36848e-19
0.00121832
-7.39606e-19
0.00121832
1.1931e-18
0.00121832
7.63071e-20
0.00121832
-1.21797e-18
0.00121832
-7.74077e-19
0.00121832
-6.33217e-19
0.00121832
6.64096e-19
0.00121832
3.11479e-19
0.00121832
-5.64628e-19
0.00121832
7.92915e-20
0.00121832
1.13477e-18
0.00121832
-8.50995e-20
0.00121832
-1.03188e-18
0.00121832
-1.02271e-18
0.00121832
5.13338e-19
0.00121832
2.48431e-18
0.00121832
1.30294e-18
0.00121832
1.59592e-18
0.00121832
2.13265e-18
0.00121832
-8.27012e-19
0.00121832
-1.7061e-18
0.00121832
9.42346e-20
0.00121832
1.91581e-19
0.00121832
-6.75998e-19
0.00121832
1.87907e-18
0.00121832
1.01643e-18
0.00121832
1.3489e-18
0.00121832
1.68252e-18
0.00121832
-1.98858e-18
0.00121832
-1.9739e-18
0.00121832
-4.43263e-20
0.00121832
7.16914e-19
0.00121832
6.21906e-19
0.00121832
4.49944e-19
0.00121832
-4.11538e-19
0.00121832
2.9548e-19
0.00121832
-1.17891e-18
0.00121832
-5.76471e-19
0.00121832
-1.33385e-18
0.00121832
-3.15723e-19
0.00121832
2.11312e-18
0.00121832
6.98018e-19
0.00121832
-1.25059e-18
0.00121832
-1.61619e-18
0.00121832
-4.57288e-19
0.00121832
-9.21829e-19
0.00121832
-1.94851e-19
0.00121832
-4.97457e-19
0.00121832
3.59251e-19
0.00121832
1.82993e-18
0.00121832
2.14549e-18
0.00121832
-1.52975e-19
0.00121832
-2.02455e-19
0.00121832
-8.01378e-19
0.00121832
-8.642e-19
0.00121832
6.44102e-19
0.00121832
4.62968e-20
0.00121832
1.13771e-18
0.00121832
1.86519e-18
0.00121832
1.49522e-19
0.00121832
-3.97087e-20
0.00121832
-3.38475e-19
0.00121832
-7.44155e-19
0.00121832
-7.45133e-19
0.00121832
-2.71609e-19
0.00121832
1.84713e-18
0.00121832
7.2146e-19
0.00121832
-4.99215e-19
0.00121832
4.54101e-19
0.00121832
-5.9698e-20
0.00121832
-3.69177e-20
0.00121832
2.93219e-19
0.00121832
-2.91191e-19
0.00121832
-1.20504e-19
0.00121832
1.44349e-18
0.00121832
-8.74439e-20
0.00121832
-1.51177e-18
0.00121832
2.04262e-19
0.00121832
6.5876e-19
0.00121832
-2.51669e-19
0.00121832
-8.56145e-20
0.00121832
-6.14067e-19
0.00121832
1.76911e-18
0.00121832
3.04445e-18
0.00121832
2.75692e-19
0.00121832
2.26428e-19
0.00121832
-2.10702e-18
0.00121832
-1.90132e-18
0.00121832
2.97977e-18
0.00121832
1.42188e-19
0.00121832
2.6989e-19
0.00121832
4.14973e-18
0.00121832
-9.37188e-19
0.00121832
-2.42036e-18
0.00121832
-3.37995e-19
0.00121832
-1.21366e-18
0.00121832
-4.92979e-19
0.00121832
3.55488e-19
0.00121832
3.30181e-19
0.00121832
1.29785e-18
0.00121832
1.14919e-18
0.00121832
-5.64493e-19
0.00121832
-2.3575e-18
0.00121832
-3.26233e-18
0.00121832
9.26652e-20
0.00121832
1.66912e-18
0.00121832
-2.29128e-18
0.00121832
1.345e-18
0.00121832
9.29623e-19
0.00121832
-3.27067e-18
0.00121832
1.17035e-18
0.00121832
-3.44192e-20
0.00121832
-3.39059e-18
0.00121832
-1.13307e-20
0.00121832
9.54936e-19
0.00121832
8.87478e-19
0.00121832
4.81256e-18
0.00121832
9.1717e-19
0.00121832
-2.80069e-18
0.00121832
2.47666e-19
0.00121832
-1.4074e-18
-2.46662e-18
0.00168765
-2.61811e-18
0.00168765
-2.49985e-18
0.00168765
-2.55169e-18
0.00168765
-2.03769e-18
0.00168765
-1.44449e-18
0.00168765
-1.34064e-18
0.00168765
-1.02445e-18
0.00168765
-1.08224e-18
0.00168765
-1.11781e-18
0.00168765
-9.62787e-19
0.00168765
-9.51666e-19
0.00168765
-1.26309e-18
0.00168765
-1.45174e-18
0.00168765
-1.48716e-18
0.00168765
-1.44076e-18
0.00168765
-1.80962e-18
0.00168765
-1.60501e-18
0.00168765
-1.73935e-18
0.00168765
-6.80891e-19
0.00168765
-3.67654e-19
0.00168765
-1.35392e-19
0.00168765
-2.58223e-19
0.00168765
2.23661e-19
0.00168765
-2.62488e-19
0.00168765
-3.88135e-19
0.00168765
-1.89736e-19
0.00168765
-4.33828e-19
0.00168765
-2.38562e-19
0.00168765
-6.79435e-19
0.00168765
-1.0019e-18
0.00168765
-9.16084e-19
0.00168765
-5.39598e-19
0.00168765
-1.41475e-19
0.00168765
3.37929e-19
0.00168765
-1.04153e-19
0.00168765
-3.79784e-19
0.00168765
-4.21432e-19
0.00168765
2.32966e-21
0.00168765
5.3141e-19
0.00168765
4.24114e-19
0.00168765
2.89669e-19
0.00168765
-7.62088e-20
0.00168765
1.30986e-19
0.00168765
2.06721e-19
0.00168765
7.50981e-20
0.00168765
7.3348e-19
0.00168765
-1.48976e-19
0.00168765
-9.02977e-19
0.00168765
-6.85914e-19
0.00168765
-8.93903e-19
0.00168765
-1.08285e-18
0.00168765
-1.23276e-18
0.00168765
-1.4968e-18
0.00168765
-6.22849e-19
0.00168765
-5.7726e-19
0.00168765
-4.4859e-19
0.00168765
-3.61018e-19
0.00168765
-4.69275e-19
0.00168765
-4.85614e-19
0.00168765
-1.7541e-19
0.00168765
-2.74131e-19
0.00168765
5.20673e-19
0.00168765
1.11984e-18
0.00168765
1.2883e-18
0.00168765
1.46542e-18
0.00168765
9.34119e-19
0.00168765
-1.85554e-19
0.00168765
-4.60898e-19
0.00168765
-1.16904e-20
0.00168765
-5.31013e-20
0.00168765
1.12502e-20
0.00168765
1.63714e-19
0.00168765
1.30406e-18
0.00168765
7.96937e-19
0.00168765
2.19971e-19
0.00168765
1.51772e-18
0.00168765
1.34787e-18
0.00168765
3.58849e-19
0.00168765
3.10839e-19
0.00168765
1.68345e-18
0.00168765
2.2736e-18
0.00168765
1.35368e-18
0.00168765
9.78002e-19
0.00168765
7.55326e-19
0.00168765
9.79144e-19
0.00168765
1.34518e-18
0.00168765
1.31341e-18
0.00168765
1.66176e-18
0.00168765
9.11989e-19
0.00168765
1.2137e-18
0.00168765
2.25991e-18
0.00168765
2.08968e-18
0.00168765
1.91128e-18
0.00168765
1.18231e-18
0.00168765
-2.59031e-19
0.00168765
-6.34643e-19
0.00168765
7.78824e-20
0.00168765
6.61736e-19
0.00168765
-7.96138e-19
0.00168765
-1.32762e-18
0.00168765
5.36352e-19
0.00168765
4.53941e-19
0.00168765
-4.96521e-19
0.00168765
-9.19969e-19
0.00168765
-3.91679e-19
0.00168765
-2.20972e-19
0.00168765
-9.3759e-19
0.00168765
-7.31181e-19
0.00168765
1.12879e-18
0.00168765
1.12002e-18
0.00168765
-2.17953e-19
0.00168765
-3.42108e-19
0.00168765
1.27669e-19
0.00168765
1.49316e-18
0.00168765
9.98499e-19
0.00168765
-6.60114e-19
0.00168765
-8.00518e-19
0.00168765
7.58227e-19
0.00168765
9.45725e-19
0.00168765
1.86444e-19
0.00168765
-2.48184e-19
0.00168765
6.62962e-19
0.00168765
1.21067e-18
0.00168765
4.41173e-20
0.00168765
-1.40703e-19
0.00168765
-3.28463e-19
0.00168765
-6.22968e-19
0.00168765
-8.51336e-19
0.00168765
-8.24013e-19
0.00168765
-6.31276e-19
0.00168765
-9.38155e-20
0.00168765
1.88741e-19
0.00168765
4.48197e-19
0.00168765
-8.52312e-20
0.00168765
-3.80172e-19
0.00168765
5.79312e-19
0.00168765
-7.23776e-19
0.00168765
1.62493e-19
0.00168765
1.34447e-18
0.00168765
2.78834e-19
0.00168765
-4.74674e-19
0.00168765
-5.14861e-19
0.00168765
1.61725e-18
0.00168765
1.58048e-18
0.00168765
-1.53654e-18
0.00168765
-4.34359e-19
0.00168765
2.59699e-18
0.00168765
-5.63991e-19
0.00168765
-1.64994e-18
0.00168765
-2.06693e-19
0.00168765
-4.60022e-19
0.00168765
6.82179e-19
0.00168765
8.9087e-19
0.00168765
-1.26322e-18
0.00168765
-5.76711e-19
0.00168765
-2.95648e-19
0.00168765
-1.66536e-18
0.00168765
-1.5136e-18
0.00168765
-9.93209e-19
0.00168765
1.44705e-18
0.00168765
1.02683e-18
0.00168765
-1.28304e-19
0.00168765
-8.5863e-19
0.00168765
-6.06036e-19
0.00168765
2.78039e-19
0.00168765
-1.29231e-19
0.00168765
-8.44327e-20
0.00168765
-2.889e-19
0.00168765
2.00122e-18
0.00168765
2.48781e-18
0.00168765
2.43914e-19
0.00168765
4.82789e-19
0.00168765
8.73831e-19
0.00168765
-1.97206e-19
0.00168765
-7.4902e-19
0.00168765
6.08268e-19
0.00168765
8.23488e-19
0.00168765
-6.58961e-19
0.00168765
-1.09595e-18
0.00168765
1.16527e-18
0.00168765
2.08018e-19
0.00168765
-1.47022e-18
0.00168765
-3.38821e-19
0.00168765
-2.89052e-19
0.00168765
-7.49235e-20
0.00168765
1.77825e-19
0.00168765
-1.4004e-19
0.00168765
-5.0501e-19
0.00168765
1.21426e-18
0.00168765
6.71844e-19
0.00168765
-1.153e-18
0.00168765
-6.03636e-19
0.00168765
1.14901e-18
0.00168765
2.67511e-18
0.00168765
1.72716e-18
0.00168765
1.50634e-18
0.00168765
2.2581e-18
0.00168765
-1.02965e-19
0.00168765
-1.72076e-18
0.00168765
5.42635e-19
0.00168765
5.85022e-19
0.00168765
-5.55849e-19
0.00168765
1.831e-18
0.00168765
1.52046e-18
0.00168765
1.90188e-18
0.00168765
1.87719e-18
0.00168765
-1.92145e-18
0.00168765
-2.32407e-18
0.00168765
-1.22432e-19
0.00168765
3.65197e-19
0.00168765
8.39158e-19
0.00168765
7.29863e-19
0.00168765
-2.43865e-19
0.00168765
1.2841e-20
0.00168765
-2.21931e-18
0.00168765
-2.04511e-19
0.00168765
-1.34993e-18
0.00168765
-5.53387e-19
0.00168765
2.12217e-18
0.00168765
6.30393e-19
0.00168765
-1.50179e-18
0.00168765
-1.28843e-18
0.00168765
-4.96674e-19
0.00168765
-7.59724e-19
0.00168765
-4.28773e-19
0.00168765
-6.66088e-19
0.00168765
6.34062e-19
0.00168765
1.57064e-18
0.00168765
2.57447e-18
0.00168765
4.98671e-19
0.00168765
2.14049e-19
0.00168765
-6.58567e-19
0.00168765
-6.25228e-19
0.00168765
6.68026e-19
0.00168765
1.36304e-19
0.00168765
1.177e-18
0.00168765
1.62667e-18
0.00168765
7.53866e-20
0.00168765
1.42352e-19
0.00168765
-5.64242e-19
0.00168765
-5.70191e-19
0.00168765
-5.33999e-19
0.00168765
-5.91602e-19
0.00168765
2.47821e-18
0.00168765
9.97368e-19
0.00168765
3.9988e-19
0.00168765
1.29451e-19
0.00168765
-1.19664e-18
0.00168765
3.89083e-19
0.00168765
1.45799e-18
0.00168765
-2.5272e-19
0.00168765
1.79943e-19
0.00168765
5.78834e-19
0.00168765
7.97105e-20
0.00168765
-4.46547e-19
0.00168765
-9.10928e-19
0.00168765
3.59955e-19
0.00168765
8.95848e-21
0.00168765
-2.53315e-19
0.00168765
-1.3378e-18
0.00168765
2.73201e-18
0.00168765
4.35357e-18
0.00168765
3.2196e-19
0.00168765
6.46865e-20
0.00168765
-2.08959e-18
0.00168765
-2.16791e-18
0.00168765
3.10934e-18
0.00168765
1.54038e-18
0.00168765
3.81633e-19
0.00168765
3.73894e-18
0.00168765
-1.33231e-18
0.00168765
-2.80629e-18
0.00168765
4.12307e-19
0.00168765
-1.61073e-18
0.00168765
-1.43486e-18
0.00168765
1.67356e-18
0.00168765
4.28751e-19
0.00168765
-1.7524e-19
0.00168765
1.28579e-18
0.00168765
-1.26736e-19
0.00168765
-2.74612e-18
0.00168765
-4.1159e-18
0.00168765
1.04165e-19
0.00168765
1.70857e-18
0.00168765
-3.44516e-18
0.00168765
9.08817e-19
0.00168765
1.08504e-18
0.00168765
-4.4646e-18
0.00168765
5.17415e-19
0.00168765
1.88244e-19
0.00168765
-4.56932e-18
0.00168765
-6.82822e-19
0.00168765
2.26807e-18
0.00168765
2.12927e-19
0.00168765
4.14945e-18
0.00168765
1.17688e-18
0.00168765
-2.89746e-18
0.00168765
3.21461e-19
0.00168765
-8.009e-19
-2.46888e-18
0.00214699
-2.61896e-18
0.00214699
-2.96238e-18
0.00214699
-3.24586e-18
0.00214699
-3.14728e-18
0.00214699
-2.44944e-18
0.00214699
-1.93863e-18
0.00214699
-1.3977e-18
0.00214699
-1.18502e-18
0.00214699
-1.71607e-18
0.00214699
-1.74062e-18
0.00214699
-1.83036e-18
0.00214699
-2.28591e-18
0.00214699
-2.89286e-18
0.00214699
-2.24799e-18
0.00214699
-2.14969e-18
0.00214699
-2.40237e-18
0.00214699
-2.74469e-18
0.00214699
-2.01106e-18
0.00214699