/*--------------------------------*- C++ -*----------------------------------*\
| =========                 |                                                 |
| \\      /  F ield         | OpenFOAM: The Open Source CFD Toolbox           |
|  \\    /   O peration     | Version:  2406                                  |
|   \\  /    A nd           | Website:  www.openfoam.com                      |
|    \\/     M anipulation  |                                                 |
\*---------------------------------------------------------------------------*/
FoamFile
{
    version     2.0;
    format      ascii;
    arch        "LSB;label=32;scalar=64";
    class       volVectorField;
    location    "13";
    object      U;
}
// * * * * * * * * * * * * * * * * * * * * * * * * * * * * * * * * * * * * * //

dimensions      [0 1 -1 0 0 0 0];

internalField   nonuniform List<vector> 
30000
(
(0.249664 -3.27973e-14 0)
(0.249664 -1.41192e-14 0)
(0.249664 -4.70795e-15 0)
(0.249664 -2.133e-15 0)
(0.249664 -1.21171e-15 0)
(0.249664 -7.61809e-16 0)
(0.249664 -4.75824e-16 0)
(0.249664 -3.35757e-16 0)
(0.249664 -2.9084e-16 0)
(0.249664 -1.89006e-16 0)
(0.249664 -1.72076e-16 0)
(0.249664 -1.76216e-16 0)
(0.249664 -1.26464e-16 0)
(0.249664 -4.00162e-17 0)
(0.249664 -4.98458e-17 0)
(0.249664 -9.98809e-17 0)
(0.249664 -1.18025e-16 0)
(0.249664 -3.5414e-17 0)
(0.249664 -1.24692e-16 0)
(0.249664 6.05052e-18 0)
(0.249664 2.3705e-17 0)
(0.249664 -5.48616e-17 0)
(0.249664 3.52777e-17 0)
(0.249664 -5.7491e-18 0)
(0.249664 -3.00327e-17 0)
(0.249664 -4.75345e-18 0)
(0.249664 -4.93907e-18 0)
(0.249664 4.04029e-17 0)
(0.249664 -9.45575e-17 0)
(0.249664 -6.41462e-17 0)
(0.249664 1.98278e-17 0)
(0.249664 -1.30766e-16 0)
(0.249664 -2.31337e-17 0)
(0.249664 2.091e-16 0)
(0.249664 -7.9389e-17 0)
(0.249664 -5.53536e-17 0)
(0.249664 -3.38134e-17 0)
(0.249664 -2.52713e-17 0)
(0.249664 -8.01914e-18 0)
(0.249664 -6.80746e-17 0)
(0.249664 9.92019e-17 0)
(0.249664 -1.07016e-16 0)
(0.249664 9.45428e-17 0)
(0.249664 6.90862e-17 0)
(0.249664 -2.1509e-16 0)
(0.249664 7.16057e-17 0)
(0.249664 2.05113e-16 0)
(0.249664 -5.13767e-17 0)
(0.249664 -5.63446e-17 0)
(0.249664 7.79828e-17 0)
(0.249664 6.94954e-18 0)
(0.249664 8.8356e-17 0)
(0.249664 -2.24224e-16 0)
(0.249664 -2.11941e-16 0)
(0.249664 1.48913e-16 0)
(0.249664 4.30931e-17 0)
(0.249664 1.19968e-16 0)
(0.249664 -1.44843e-16 0)
(0.249664 -1.41479e-16 0)
(0.249664 1.51698e-16 0)
(0.249664 1.17217e-16 0)
(0.249664 -1.21066e-16 0)
(0.249664 -4.36191e-18 0)
(0.249664 1.70526e-16 0)
(0.249664 -2.0702e-16 0)
(0.249664 5.14838e-17 0)
(0.249664 1.04058e-16 0)
(0.249664 1.28933e-16 0)
(0.249664 7.44652e-17 0)
(0.249664 -1.59996e-16 0)
(0.249664 -1.82061e-16 0)
(0.249664 -1.97867e-17 0)
(0.249664 2.99733e-16 0)
(0.249664 -1.69788e-16 0)
(0.249664 -2.30495e-16 0)
(0.249664 3.37126e-16 0)
(0.249664 4.1548e-17 0)
(0.249664 -3.28943e-16 0)
(0.249664 -3.12418e-17 0)
(0.249664 2.06499e-16 0)
(0.249664 3.95464e-17 0)
(0.249664 -4.23786e-17 0)
(0.249664 6.37851e-17 0)
(0.249664 1.33985e-16 0)
(0.249664 -2.699e-16 0)
(0.249664 2.1815e-16 0)
(0.249664 2.64914e-16 0)
(0.249664 -2.83144e-16 0)
(0.249664 -5.94709e-17 0)
(0.249664 -1.14602e-16 0)
(0.249664 6.7325e-17 0)
(0.249664 3.24424e-16 0)
(0.249664 -7.91761e-17 0)
(0.249664 -1.07066e-17 0)
(0.249664 9.82052e-17 0)
(0.249664 -4.63128e-16 0)
(0.249664 9.77322e-17 0)
(0.249664 2.97693e-16 0)
(0.249664 -2.09102e-16 0)
(0.249664 -1.45542e-16 0)
(0.249664 -1.15347e-17 0)
(0.249664 2.46866e-16 0)
(0.249664 -3.04171e-16 0)
(0.249664 -2.7502e-16 0)
(0.249664 5.35503e-16 0)
(0.249664 -2.45085e-16 0)
(0.249664 -3.37207e-16 0)
(0.249664 1.63467e-16 0)
(0.249664 3.35517e-17 0)
(0.249664 3.12088e-16 0)
(0.249664 -2.06281e-16 0)
(0.249664 -3.21309e-16 0)
(0.249664 2.20713e-16 0)
(0.249664 1.62718e-16 0)
(0.249664 3.2205e-16 0)
(0.249664 -1.43242e-16 0)
(0.249664 -6.2738e-16 0)
(0.249664 6.3049e-18 0)
(0.249664 3.29093e-16 0)
(0.249664 -5.66644e-18 0)
(0.249664 -6.26276e-17 0)
(0.249664 3.82494e-17 0)
(0.249664 3.89914e-16 0)
(0.249664 -9.02242e-18 0)
(0.249664 -5.87883e-16 0)
(0.249664 2.71902e-16 0)
(0.249664 2.57176e-16 0)
(0.249664 -2.59971e-16 0)
(0.249664 1.82199e-17 0)
(0.249664 -7.27589e-17 0)
(0.249664 -3.1987e-16 0)
(0.249664 -7.30172e-17 0)
(0.249664 2.95826e-16 0)
(0.249664 -4.77524e-17 0)
(0.249664 -3.79208e-17 0)
(0.249664 2.91334e-17 0)
(0.249664 2.38865e-16 0)
(0.249664 -2.99092e-16 0)
(0.249664 9.9484e-17 0)
(0.249664 3.57856e-16 0)
(0.249664 -3.38067e-16 0)
(0.249664 -3.60695e-16 0)
(0.249664 3.63898e-17 0)
(0.249664 3.48133e-16 0)
(0.249664 -7.63519e-17 0)
(0.249664 -2.7423e-17 0)
(0.249664 4.12109e-16 0)
(0.249664 -2.66364e-16 0)
(0.249664 -3.67162e-16 0)
(0.249664 3.08729e-16 0)
(0.249664 -6.83197e-17 0)
(0.249664 -2.59998e-17 0)
(0.249664 3.92589e-16 0)
(0.249664 -3.14553e-16 0)
(0.249664 -3.76857e-17 0)
(0.249664 2.46172e-16 0)
(0.249664 -6.68868e-16 0)
(0.249664 -3.10779e-16 0)
(0.249664 5.81116e-16 0)
(0.249664 6.70137e-16 0)
(0.249664 -4.52499e-16 0)
(0.249664 -1.21799e-16 0)
(0.249664 -4.33537e-17 0)
(0.249664 -1.55949e-17 0)
(0.249664 7.61766e-18 0)
(0.249664 -1.25846e-17 0)
(0.249664 4.43574e-19 0)
(0.249664 -5.53133e-16 0)
(0.249664 8.68867e-16 0)
(0.249664 1.07334e-16 0)
(0.249664 -8.70761e-16 0)
(0.249664 8.14419e-16 0)
(0.249664 4.14989e-16 0)
(0.249664 -8.29931e-16 0)
(0.249664 1.41679e-16 0)
(0.249664 4.69951e-17 0)
(0.249664 4.32988e-17 0)
(0.249664 -3.66917e-17 0)
(0.249664 -5.53764e-17 0)
(0.249664 3.28487e-16 0)
(0.249664 -5.1439e-16 0)
(0.249664 -9.16919e-17 0)
(0.249664 2.05828e-16 0)
(0.249664 -3.07783e-16 0)
(0.249664 6.36234e-16 0)
(0.249664 5.26665e-17 0)
(0.249664 -6.07473e-16 0)
(0.249664 4.91498e-16 0)
(0.249664 8.29453e-17 0)
(0.249664 -2.575e-16 0)
(0.249664 -9.72422e-17 0)
(0.249664 -1.38706e-16 0)
(0.249664 -5.60956e-16 0)
(0.249664 4.09326e-16 0)
(0.249664 6.06197e-16 0)
(0.249664 -2.06419e-16 0)
(0.249664 1.72616e-16 0)
(0.249664 4.9453e-16 0)
(0.249664 -7.07816e-16 0)
(0.249664 -5.83407e-16 0)
(0.249664 5.64198e-16 0)
(0.249664 -6.71029e-17 0)
(0.249664 7.77677e-17 0)
(0.249664 3.67728e-17 0)
(0.249664 4.9825e-16 0)
(0.249664 -4.35206e-16 0)
(0.249664 -6.8274e-16 0)
(0.249664 3.69218e-16 0)
(0.249664 6.39475e-17 0)
(0.249664 7.13884e-17 0)
(0.249664 5.74652e-16 0)
(0.249664 -4.42876e-16 0)
(0.249664 -5.23048e-16 0)
(0.249664 1.0593e-15 0)
(0.249664 -5.29764e-16 0)
(0.249664 -6.06802e-16 0)
(0.249664 3.48378e-16 0)
(0.249664 1.65611e-18 0)
(0.249664 2.13741e-16 0)
(0.249664 6.93571e-16 0)
(0.249664 -7.3025e-17 0)
(0.249664 -7.3089e-16 0)
(0.249664 -5.93219e-16 0)
(0.249664 -1.01057e-16 0)
(0.249664 4.65621e-16 0)
(0.249664 -4.1791e-16 0)
(0.249664 5.4606e-16 0)
(0.249664 6.3917e-16 0)
(0.249664 -3.19345e-16 0)
(0.249664 4.2504e-16 0)
(0.249664 -1.51545e-16 0)
(0.249664 -1.14138e-15 0)
(0.249664 4.05548e-16 0)
(0.249664 4.89858e-17 0)
(0.249664 -5.55751e-16 0)
(0.249664 5.91412e-16 0)
(0.249664 1.55053e-16 0)
(0.249664 5.08458e-16 0)
(0.249664 -5.60533e-16 0)
(0.249664 1.32106e-17 0)
(0.249664 -2.85484e-17 0)
(0.249664 -6.7642e-16 0)
(0.249664 5.46515e-16 0)
(0.249664 7.41459e-16 0)
(0.249664 -5.55607e-16 0)
(0.249664 -1.33468e-16 0)
(0.249664 5.43271e-16 0)
(0.249664 -5.30999e-16 0)
(0.249664 -1.27082e-16 0)
(0.249664 -5.79469e-16 0)
(0.249664 -6.29588e-17 0)
(0.249664 1.42277e-16 0)
(0.249664 1.317e-15 0)
(0.249664 4.65701e-17 0)
(0.249664 -6.11961e-16 0)
(0.249664 4.72491e-16 0)
(0.249664 -6.4096e-16 0)
(0.249664 -6.89744e-16 0)
(0.249664 4.96476e-16 0)
(0.249664 4.66439e-17 0)
(0.249664 1.65286e-16 0)
(0.249664 7.06727e-16 0)
(0.249664 -1.07426e-15 0)
(0.249664 4.47668e-16 0)
(0.249664 -1.28868e-16 0)
(0.249664 -1.22763e-16 0)
(0.249664 2.37306e-16 0)
(0.249664 -6.58982e-16 0)
(0.249664 5.52159e-16 0)
(0.249664 1.48569e-15 0)
(0.249664 -1.24308e-15 0)
(0.249664 -8.52827e-16 0)
(0.249664 4.23491e-16 0)
(0.249664 -4.66546e-16 0)
(0.249664 1.12105e-15 0)
(0.249664 -1.09583e-15 0)
(0.249664 -1.43772e-16 0)
(0.249664 1.21141e-15 0)
(0.249664 1.0791e-16 0)
(0.249664 -6.63154e-16 0)
(0.249664 -2.24108e-16 0)
(0.249664 -1.65355e-16 0)
(0.249664 -2.12218e-17 0)
(0.249664 -4.60567e-17 0)
(0.249664 -7.35064e-16 0)
(0.249664 1.08584e-15 0)
(0.249664 -5.23645e-16 0)
(0.249664 -8.8152e-16 0)
(0.249664 5.60132e-16 0)
(0.249664 4.81161e-16 0)
(0.249664 -9.39352e-16 0)
(0.249664 -7.24452e-16 0)
(0.249664 2.41587e-16 0)
(0.249664 -2.73483e-16 0)
(0.249664 5.67859e-16 0)
(0.249664 -1.33603e-16 0)
(0.249664 -3.05461e-15 0)
(0.249664 -2.18998e-15 0)
(0.249664 -4.17972e-15 0)
(0.249664 -1.45962e-14 0)
(0.738993 -4.70159e-14 0)
(0.738993 -2.45878e-14 0)
(0.738993 -1.17809e-14 0)
(0.738993 -6.41215e-15 0)
(0.738993 -3.86092e-15 0)
(0.738993 -2.48841e-15 0)
(0.738993 -1.69839e-15 0)
(0.738993 -1.14593e-15 0)
(0.738993 -8.9919e-16 0)
(0.738993 -8.40357e-16 0)
(0.738993 -6.51009e-16 0)
(0.738993 -5.76645e-16 0)
(0.738993 -5.03078e-16 0)
(0.738993 -3.35278e-16 0)
(0.738993 -4.06587e-16 0)
(0.738993 -5.30786e-16 0)
(0.738993 -4.84433e-16 0)
(0.738993 -3.28186e-16 0)
(0.738993 -3.13155e-16 0)
(0.738993 5.76842e-17 0)
(0.738993 -6.62584e-17 0)
(0.738993 -1.43262e-16 0)
(0.738993 5.58711e-17 0)
(0.738993 -1.39478e-17 0)
(0.738993 -2.3997e-17 0)
(0.738993 1.50126e-18 0)
(0.738993 8.7768e-18 0)
(0.738993 -7.86895e-17 0)
(0.738993 -3.44709e-16 0)
(0.738993 -2.42439e-16 0)
(0.738993 -8.34469e-17 0)
(0.738993 -1.64912e-16 0)
(0.738993 -3.83732e-17 0)
(0.738993 2.58066e-16 0)
(0.738993 -2.16384e-16 0)
(0.738993 -2.46223e-16 0)
(0.738993 -8.07953e-17 0)
(0.738993 -8.13539e-17 0)
(0.738993 3.2886e-17 0)
(0.738993 -1.6715e-17 0)
(0.738993 2.86876e-16 0)
(0.738993 -1.98104e-16 0)
(0.738993 -9.51455e-17 0)
(0.738993 2.2642e-16 0)
(0.738993 -8.87552e-17 0)
(0.738993 3.48012e-16 0)
(0.738993 3.8262e-16 0)
(0.738993 -1.26696e-16 0)
(0.738993 -8.16941e-17 0)
(0.738993 1.09078e-16 0)
(0.738993 -1.24924e-16 0)
(0.738993 -2.47886e-16 0)
(0.738993 -6.28212e-16 0)
(0.738993 -3.62816e-16 0)
(0.738993 2.68414e-16 0)
(0.738993 -1.38835e-16 0)
(0.738993 -7.67962e-17 0)
(0.738993 -1.57298e-16 0)
(0.738993 -1.74749e-16 0)
(0.738993 2.34009e-16 0)
(0.738993 8.60017e-17 0)
(0.738993 -7.63074e-17 0)
(0.738993 1.4989e-16 0)
(0.738993 5.90063e-16 0)
(0.738993 1.66095e-16 0)
(0.738993 4.64367e-16 0)
(0.738993 -1.98162e-16 0)
(0.738993 -2.22875e-16 0)
(0.738993 4.01101e-16 0)
(0.738993 -3.05186e-16 0)
(0.738993 -4.503e-16 0)
(0.738993 7.95867e-17 0)
(0.738993 4.12631e-16 0)
(0.738993 -3.2962e-16 0)
(0.738993 -3.08801e-16 0)
(0.738993 8.19584e-16 0)
(0.738993 1.58075e-16 0)
(0.738993 -4.85091e-16 0)
(0.738993 2.91476e-16 0)
(0.738993 5.9061e-16 0)
(0.738993 1.13084e-16 0)
(0.738993 -8.77557e-17 0)
(0.738993 5.17736e-16 0)
(0.738993 -3.36368e-17 0)
(0.738993 -4.36061e-16 0)
(0.738993 1.04488e-15 0)
(0.738993 4.36443e-16 0)
(0.738993 -3.26609e-16 0)
(0.738993 1.68778e-16 0)
(0.738993 2.56681e-16 0)
(0.738993 2.56358e-16 0)
(0.738993 4.6992e-16 0)
(0.738993 3.77822e-16 0)
(0.738993 -1.87398e-18 0)
(0.738993 -2.51605e-17 0)
(0.738993 -6.49073e-16 0)
(0.738993 -2.02409e-17 0)
(0.738993 3.22005e-16 0)
(0.738993 -6.07915e-16 0)
(0.738993 -6.07108e-16 0)
(0.738993 -1.17059e-16 0)
(0.738993 3.95008e-17 0)
(0.738993 -1.37759e-17 0)
(0.738993 2.35392e-16 0)
(0.738993 1.65309e-17 0)
(0.738993 -8.13442e-16 0)
(0.738993 -4.37668e-16 0)
(0.738993 4.29262e-17 0)
(0.738993 2.15137e-16 0)
(0.738993 6.14521e-16 0)
(0.738993 1.01414e-16 0)
(0.738993 -8.61697e-16 0)
(0.738993 -6.28112e-17 0)
(0.738993 1.12956e-15 0)
(0.738993 3.66607e-16 0)
(0.738993 -7.61277e-16 0)
(0.738993 -7.14079e-16 0)
(0.738993 2.0903e-16 0)
(0.738993 5.80849e-16 0)
(0.738993 2.43035e-17 0)
(0.738993 -9.63066e-17 0)
(0.738993 2.58736e-16 0)
(0.738993 7.39579e-16 0)
(0.738993 -2.08198e-17 0)
(0.738993 -7.66411e-16 0)
(0.738993 3.27971e-16 0)
(0.738993 1.00275e-16 0)
(0.738993 -4.99727e-16 0)
(0.738993 -1.57563e-16 0)
(0.738993 -2.98009e-16 0)
(0.738993 -4.74728e-16 0)
(0.738993 -3.77704e-17 0)
(0.738993 9.23158e-16 0)
(0.738993 -8.0474e-16 0)
(0.738993 -7.63867e-16 0)
(0.738993 6.3368e-16 0)
(0.738993 2.69075e-16 0)
(0.738993 -3.64929e-16 0)
(0.738993 5.7392e-16 0)
(0.738993 2.75552e-16 0)
(0.738993 -8.1024e-16 0)
(0.738993 -3.47436e-16 0)
(0.738993 2.63335e-16 0)
(0.738993 6.91317e-16 0)
(0.738993 -1.95576e-16 0)
(0.738993 1.30054e-16 0)
(0.738993 8.93035e-16 0)
(0.738993 -2.2296e-16 0)
(0.738993 -6.63553e-16 0)
(0.738993 6.89409e-16 0)
(0.738993 -8.66729e-16 0)
(0.738993 -6.74637e-16 0)
(0.738993 1.4513e-15 0)
(0.738993 -5.6705e-16 0)
(0.738993 -5.73818e-16 0)
(0.738993 4.16044e-16 0)
(0.738993 -8.46294e-16 0)
(0.738993 -1.12495e-16 0)
(0.738993 1.18389e-18 0)
(0.738993 4.43975e-16 0)
(0.738993 3.17722e-16 0)
(0.738993 -4.89475e-16 0)
(0.738993 -3.78431e-16 0)
(0.738993 2.372e-16 0)
(0.738993 6.24489e-17 0)
(0.738993 1.16284e-16 0)
(0.738993 4.42629e-16 0)
(0.738993 -1.37874e-15 0)
(0.738993 5.54183e-16 0)
(0.738993 1.38899e-15 0)
(0.738993 -9.86567e-16 0)
(0.738993 8.08984e-16 0)
(0.738993 1.28887e-15 0)
(0.738993 -1.0969e-15 0)
(0.738993 -4.1733e-16 0)
(0.738993 3.37183e-16 0)
(0.738993 4.42253e-16 0)
(0.738993 1.16484e-16 0)
(0.738993 -4.76834e-16 0)
(0.738993 2.65553e-16 0)
(0.738993 -1.19271e-16 0)
(0.738993 -6.67505e-16 0)
(0.738993 -4.54687e-16 0)
(0.738993 -2.71228e-16 0)
(0.738993 1.00799e-15 0)
(0.738993 3.19698e-16 0)
(0.738993 -5.0188e-16 0)
(0.738993 2.09427e-16 0)
(0.738993 -9.90855e-17 0)
(0.738993 8.85372e-17 0)
(0.738993 -6.786e-16 0)
(0.738993 -7.58194e-16 0)
(0.738993 -3.17277e-16 0)
(0.738993 1.05076e-15 0)
(0.738993 1.21234e-15 0)
(0.738993 3.3218e-16 0)
(0.738993 7.25663e-16 0)
(0.738993 4.0533e-16 0)
(0.738993 -1.25065e-15 0)
(0.738993 -8.76069e-16 0)
(0.738993 4.92959e-16 0)
(0.738993 -6.99513e-16 0)
(0.738993 1.0169e-15 0)
(0.738993 8.93022e-16 0)
(0.738993 -2.24932e-16 0)
(0.738993 3.57359e-16 0)
(0.738993 -5.99242e-16 0)
(0.738993 -5.93618e-16 0)
(0.738993 5.19514e-16 0)
(0.738993 -3.09833e-16 0)
(0.738993 2.33997e-16 0)
(0.738993 2.50351e-16 0)
(0.738993 -6.05472e-16 0)
(0.738993 6.59008e-16 0)
(0.738993 -1.83198e-16 0)
(0.738993 -2.96845e-16 0)
(0.738993 -4.90517e-16 0)
(0.738993 -1.56917e-16 0)
(0.738993 7.42612e-16 0)
(0.738993 1.06319e-15 0)
(0.738993 -2.9974e-16 0)
(0.738993 -1.21123e-15 0)
(0.738993 -3.9996e-16 0)
(0.738993 -1.03076e-15 0)
(0.738993 -1.845e-16 0)
(0.738993 5.18389e-16 0)
(0.738993 2.69153e-16 0)
(0.738993 7.30582e-16 0)
(0.738993 1.27446e-15 0)
(0.738993 -1.9625e-17 0)
(0.738993 -8.87776e-16 0)
(0.738993 -1.02125e-15 0)
(0.738993 2.20284e-16 0)
(0.738993 1.56956e-16 0)
(0.738993 -5.78753e-16 0)
(0.738993 8.78792e-16 0)
(0.738993 5.65419e-16 0)
(0.738993 6.31043e-16 0)
(0.738993 -6.85049e-16 0)
(0.738993 -2.84387e-17 0)
(0.738993 -2.25224e-16 0)
(0.738993 -1.07027e-15 0)
(0.738993 5.50458e-16 0)
(0.738993 1.22938e-15 0)
(0.738993 -4.71143e-16 0)
(0.738993 -3.95592e-16 0)
(0.738993 5.58152e-16 0)
(0.738993 -7.14737e-16 0)
(0.738993 -2.41137e-16 0)
(0.738993 -6.39202e-16 0)
(0.738993 4.34429e-17 0)
(0.738993 8.90293e-16 0)
(0.738993 1.20487e-15 0)
(0.738993 -4.40307e-16 0)
(0.738993 -3.28638e-16 0)
(0.738993 5.91556e-16 0)
(0.738993 -8.40878e-16 0)
(0.738993 -1.11049e-15 0)
(0.738993 4.01841e-16 0)
(0.738993 -1.14202e-17 0)
(0.738993 7.58371e-16 0)
(0.738993 1.58571e-15 0)
(0.738993 -1.0427e-15 0)
(0.738993 3.2452e-16 0)
(0.738993 -6.49456e-16 0)
(0.738993 -2.72527e-16 0)
(0.738993 1.8665e-15 0)
(0.738993 -1.96245e-15 0)
(0.738993 -5.61143e-16 0)
(0.738993 3.73183e-15 0)
(0.738993 -1.29222e-15 0)
(0.738993 -1.80172e-15 0)
(0.738993 4.09739e-17 0)
(0.738993 -7.58731e-16 0)
(0.738993 1.28548e-15 0)
(0.738993 -1.23551e-15 0)
(0.738993 -2.25819e-16 0)
(0.738993 1.80596e-15 0)
(0.738993 9.3743e-16 0)
(0.738993 -1.57364e-15 0)
(0.738993 -1.59915e-15 0)
(0.738993 -5.12064e-16 0)
(0.738993 -1.65979e-16 0)
(0.738993 7.41448e-17 0)
(0.738993 -1.3641e-15 0)
(0.738993 1.20367e-15 0)
(0.738993 -6.46121e-16 0)
(0.738993 -1.84332e-15 0)
(0.738993 4.70636e-16 0)
(0.738993 3.17929e-16 0)
(0.738993 -1.8571e-15 0)
(0.738993 -4.16761e-16 0)
(0.738993 -1.37854e-15 0)
(0.738993 -1.84425e-15 0)
(0.738993 1.95317e-15 0)
(0.738993 -8.00015e-16 0)
(0.738993 -5.97822e-15 0)
(0.738993 -5.75006e-15 0)
(0.738993 -1.15813e-14 0)
(0.738993 -2.56104e-14 0)
(1.21832 -2.71629e-14 0)
(1.21832 -1.9811e-14 0)
(1.21832 -1.28369e-14 0)
(1.21832 -8.53718e-15 0)
(1.21832 -5.78688e-15 0)
(1.21832 -4.02452e-15 0)
(1.21832 -3.05216e-15 0)
(1.21832 -2.17791e-15 0)
(1.21832 -1.60067e-15 0)
(1.21832 -1.53159e-15 0)
(1.21832 -1.53251e-15 0)
(1.21832 -1.2997e-15 0)
(1.21832 -1.28113e-15 0)
(1.21832 -1.05311e-15 0)
(1.21832 -1.14278e-15 0)
(1.21832 -1.17655e-15 0)
(1.21832 -1.02803e-15 0)
(1.21832 -8.96393e-16 0)
(1.21832 -4.76952e-16 0)
(1.21832 -1.78019e-16 0)
(1.21832 -1.37924e-16 0)
(1.21832 -9.24754e-18 0)
(1.21832 4.74222e-18 0)
(1.21832 -2.5294e-16 0)
(1.21832 -1.72915e-16 0)
(1.21832 -1.13533e-16 0)
(1.21832 -2.47543e-16 0)
(1.21832 -1.3214e-16 0)
(1.21832 -5.49909e-16 0)
(1.21832 -5.88782e-16 0)
(1.21832 -4.51923e-16 0)
(1.21832 -1.65769e-16 0)
(1.21832 -1.78442e-16 0)
(1.21832 -3.79704e-16 0)
(1.21832 -1.50593e-16 0)
(1.21832 -6.0786e-17 0)
(1.21832 -4.42765e-16 0)
(1.21832 -6.80871e-17 0)
(1.21832 3.01094e-16 0)
(1.21832 6.5305e-17 0)
(1.21832 1.72834e-16 0)
(1.21832 1.63495e-16 0)
(1.21832 -3.82983e-17 0)
(1.21832 1.64661e-16 0)
(1.21832 2.66277e-16 0)
(1.21832 1.91055e-16 0)
(1.21832 4.64671e-16 0)
(1.21832 -2.44577e-16 0)
(1.21832 -2.27147e-16 0)
(1.21832 2.22979e-16 0)
(1.21832 -5.89859e-16 0)
(1.21832 -1.11862e-15 0)
(1.21832 -8.38947e-16 0)
(1.21832 -2.0808e-16 0)
(1.21832 -3.2921e-17 0)
(1.21832 -3.72796e-16 0)
(1.21832 1.76351e-16 0)
(1.21832 -3.77855e-16 0)
(1.21832 -3.95019e-16 0)
(1.21832 1.65334e-16 0)
(1.21832 -3.7013e-17 0)
(1.21832 2.5576e-16 0)
(1.21832 1.902e-16 0)
(1.21832 1.0155e-15 0)
(1.21832 1.13224e-15 0)
(1.21832 4.15048e-16 0)
(1.21832 -2.31333e-16 0)
(1.21832 -3.04689e-16 0)
(1.21832 -1.66039e-16 0)
(1.21832 -1.64857e-16 0)
(1.21832 -1.28642e-16 0)
(1.21832 1.87925e-17 0)
(1.21832 4.72064e-16 0)
(1.21832 -2.51321e-16 0)
(1.21832 -3.36371e-16 0)
(1.21832 1.00465e-15 0)
(1.21832 1.0233e-15 0)
(1.21832 6.59296e-17 0)
(1.21832 3.09271e-16 0)
(1.21832 5.22382e-16 0)
(1.21832 9.21351e-16 0)
(1.21832 5.57781e-16 0)
(1.21832 1.51568e-16 0)
(1.21832 1.17975e-16 0)
(1.21832 5.25656e-16 0)
(1.21832 8.16742e-16 0)
(1.21832 5.25858e-16 0)
(1.21832 9.78468e-16 0)
(1.21832 4.47959e-16 0)
(1.21832 3.01921e-16 0)
(1.21832 8.30383e-16 0)
(1.21832 9.20746e-16 0)
(1.21832 7.73573e-16 0)
(1.21832 7.53473e-16 0)
(1.21832 2.6269e-16 0)
(1.21832 -1.15815e-15 0)
(1.21832 -4.98251e-16 0)
(1.21832 7.49183e-16 0)
(1.21832 -8.68917e-16 0)
(1.21832 -1.47545e-15 0)
(1.21832 4.49301e-16 0)
(1.21832 2.52656e-16 0)
(1.21832 -3.61539e-16 0)
(1.21832 -5.09824e-16 0)
(1.21832 -1.78094e-16 0)
(1.21832 -1.59991e-16 0)
(1.21832 -7.08433e-16 0)
(1.21832 -7.18683e-16 0)
(1.21832 5.95779e-16 0)
(1.21832 9.34228e-16 0)
(1.21832 -1.34398e-16 0)
(1.21832 -5.88777e-16 0)
(1.21832 -4.16749e-16 0)
(1.21832 1.32421e-15 0)
(1.21832 8.45441e-16 0)
(1.21832 -1.5732e-15 0)
(1.21832 -6.75996e-16 0)
(1.21832 1.20511e-15 0)
(1.21832 5.79389e-16 0)
(1.21832 -1.49844e-16 0)
(1.21832 -2.64967e-16 0)
(1.21832 8.24527e-16 0)
(1.21832 1.06587e-15 0)
(1.21832 -1.82857e-16 0)
(1.21832 -3.31684e-16 0)
(1.21832 9.53091e-17 0)
(1.21832 -9.29974e-16 0)
(1.21832 -5.85496e-16 0)
(1.21832 9.59134e-17 0)
(1.21832 -6.57934e-16 0)
(1.21832 -3.4232e-17 0)
(1.21832 -3.1898e-16 0)
(1.21832 8.98997e-17 0)
(1.21832 -3.01649e-16 0)
(1.21832 -2.1041e-16 0)
(1.21832 1.17593e-16 0)
(1.21832 -2.42253e-16 0)
(1.21832 -4.90933e-16 0)
(1.21832 5.69186e-16 0)
(1.21832 1.32225e-15 0)
(1.21832 -6.67268e-16 0)
(1.21832 -9.57046e-16 0)
(1.21832 1.06498e-15 0)
(1.21832 1.25624e-15 0)
(1.21832 -9.75431e-16 0)
(1.21832 -5.24184e-16 0)
(1.21832 1.8601e-15 0)
(1.21832 3.77872e-16 0)
(1.21832 -1.50932e-15 0)
(1.21832 -4.13381e-16 0)
(1.21832 -5.85105e-16 0)
(1.21832 3.58417e-16 0)
(1.21832 8.79005e-16 0)
(1.21832 -5.60198e-16 0)
(1.21832 -3.6365e-16 0)
(1.21832 -1.92158e-16 0)
(1.21832 -6.26306e-16 0)
(1.21832 -6.25932e-16 0)
(1.21832 -2.17331e-16 0)
(1.21832 9.01233e-16 0)
(1.21832 -2.88358e-16 0)
(1.21832 -5.00215e-16 0)
(1.21832 6.6829e-16 0)
(1.21832 4.3631e-17 0)
(1.21832 -2.67392e-16 0)
(1.21832 -8.51079e-17 0)
(1.21832 -8.76772e-17 0)
(1.21832 -3.35709e-16 0)
(1.21832 7.13132e-16 0)
(1.21832 1.2719e-15 0)
(1.21832 6.80288e-16 0)
(1.21832 5.77925e-17 0)
(1.21832 7.4407e-16 0)
(1.21832 7.16229e-16 0)
(1.21832 -1.21438e-15 0)
(1.21832 -2.19596e-16 0)
(1.21832 1.54506e-15 0)
(1.21832 -7.36854e-16 0)
(1.21832 -6.29836e-16 0)
(1.21832 1.1835e-15 0)
(1.21832 -3.88389e-16 0)
(1.21832 -8.16595e-16 0)
(1.21832 -1.03129e-15 0)
(1.21832 -9.66296e-16 0)
(1.21832 1.39481e-15 0)
(1.21832 6.50222e-16 0)
(1.21832 -1.01038e-15 0)
(1.21832 1.94253e-16 0)
(1.21832 1.00338e-15 0)
(1.21832 -5.30568e-16 0)
(1.21832 -8.52321e-16 0)
(1.21832 -1.09912e-15 0)
(1.21832 -7.78861e-17 0)
(1.21832 2.19914e-15 0)
(1.21832 8.02102e-16 0)
(1.21832 1.53606e-15 0)
(1.21832 2.30572e-15 0)
(1.21832 -1.30349e-15 0)
(1.21832 -1.8032e-15 0)
(1.21832 2.3229e-17 0)
(1.21832 7.6261e-17 0)
(1.21832 -6.5755e-16 0)
(1.21832 1.94803e-15 0)
(1.21832 3.78444e-16 0)
(1.21832 7.7348e-16 0)
(1.21832 1.78829e-15 0)
(1.21832 -2.04325e-15 0)
(1.21832 -1.98684e-15 0)
(1.21832 -1.97873e-16 0)
(1.21832 9.96467e-16 0)
(1.21832 7.05985e-16 0)
(1.21832 8.02338e-16 0)
(1.21832 -6.85373e-16 0)
(1.21832 6.62481e-17 0)
(1.21832 -5.90318e-16 0)
(1.21832 -6.72932e-16 0)
(1.21832 -1.34834e-15 0)
(1.21832 -1.49039e-16 0)
(1.21832 2.21826e-15 0)
(1.21832 7.2647e-16 0)
(1.21832 -1.25453e-15 0)
(1.21832 -1.68068e-15 0)
(1.21832 -4.48918e-17 0)
(1.21832 -1.00072e-15 0)
(1.21832 1.58962e-16 0)
(1.21832 -2.49626e-16 0)
(1.21832 -2.0337e-16 0)
(1.21832 2.29972e-15 0)
(1.21832 2.03587e-15 0)
(1.21832 -7.77571e-16 0)
(1.21832 -4.22899e-16 0)
(1.21832 -7.71374e-16 0)
(1.21832 -1.52441e-15 0)
(1.21832 1.18268e-15 0)
(1.21832 2.54028e-16 0)
(1.21832 7.38611e-16 0)
(1.21832 1.43404e-15 0)
(1.21832 -1.41551e-16 0)
(1.21832 -2.08546e-16 0)
(1.21832 2.07253e-16 0)
(1.21832 -1.09753e-15 0)
(1.21832 -1.38777e-15 0)
(1.21832 -2.08148e-16 0)
(1.21832 1.55109e-15 0)
(1.21832 9.28822e-16 0)
(1.21832 -1.277e-15 0)
(1.21832 5.71128e-16 0)
(1.21832 3.76181e-16 0)
(1.21832 -5.21921e-16 0)
(1.21832 -3.02308e-17 0)
(1.21832 -7.84477e-17 0)
(1.21832 -2.02355e-16 0)
(1.21832 1.84224e-15 0)
(1.21832 1.92441e-17 0)
(1.21832 -2.19113e-15 0)
(1.21832 9.39491e-16 0)
(1.21832 5.83926e-16 0)
(1.21832 -8.66432e-16 0)
(1.21832 -2.82013e-16 0)
(1.21832 -2.08306e-16 0)
(1.21832 1.22329e-15 0)
(1.21832 2.4761e-15 0)
(1.21832 3.82386e-16 0)
(1.21832 -2.92927e-16 0)
(1.21832 -2.53843e-15 0)
(1.21832 -1.60869e-15 0)
(1.21832 2.7694e-15 0)
(1.21832 -7.28432e-16 0)
(1.21832 3.93747e-16 0)
(1.21832 3.9715e-15 0)
(1.21832 -7.4245e-16 0)
(1.21832 -2.45622e-15 0)
(1.21832 -1.43102e-15 0)
(1.21832 -8.19721e-16 0)
(1.21832 7.9059e-16 0)
(1.21832 -1.15049e-15 0)
(1.21832 -5.34013e-16 0)
(1.21832 2.44179e-15 0)
(1.21832 8.77626e-16 0)
(1.21832 -6.46002e-16 0)
(1.21832 -1.93487e-15 0)
(1.21832 -3.20717e-15 0)
(1.21832 -6.36081e-16 0)
(1.21832 1.2449e-15 0)
(1.21832 -2.34035e-15 0)
(1.21832 5.00932e-16 0)
(1.21832 1.99295e-16 0)
(1.21832 -3.18988e-15 0)
(1.21832 2.98509e-16 0)
(1.21832 -1.35412e-15 0)
(1.21832 -3.32879e-15 0)
(1.21832 -1.20137e-15 0)
(1.21832 -1.45749e-15 0)
(1.21832 -1.00807e-15 0)
(1.21832 1.91694e-15 0)
(1.21832 -2.85724e-15 0)
(1.21832 -7.22864e-15 0)
(1.21832 -8.02659e-15 0)
(1.21832 -1.28367e-14 0)
(1.21832 -1.91678e-14 0)
(1.68765 -1.73355e-14 0)
(1.68765 -1.55267e-14 0)
(1.68765 -1.24109e-14 0)
(1.68765 -9.49793e-15 0)
(1.68765 -6.93206e-15 0)
(1.68765 -5.36883e-15 0)
(1.68765 -4.08625e-15 0)
(1.68765 -3.20454e-15 0)
(1.68765 -2.66758e-15 0)
(1.68765 -2.49308e-15 0)
(1.68765 -2.53862e-15 0)
(1.68765 -2.24071e-15 0)
(1.68765 -2.1302e-15 0)
(1.68765 -2.06281e-15 0)
(1.68765 -2.03625e-15 0)
(1.68765 -2.17006e-15 0)
(1.68765 -1.9879e-15 0)
(1.68765 -1.72582e-15 0)
(1.68765 -9.06546e-16 0)
(1.68765 -4.69821e-16 0)
(1.68765 -2.36641e-16 0)
(1.68765 -3.06571e-16 0)
(1.68765 -1.01799e-16 0)
(1.68765 -4.09978e-16 0)
(1.68765 -4.55858e-16 0)
(1.68765 -3.00615e-16 0)
(1.68765 -4.45489e-16 0)
(1.68765 -3.77081e-16 0)
(1.68765 -8.21752e-16 0)
(1.68765 -9.54887e-16 0)
(1.68765 -9.71291e-16 0)
(1.68765 -7.80371e-16 0)
(1.68765 -4.36048e-16 0)
(1.68765 -1.70902e-17 0)
(1.68765 -9.5853e-17 0)
(1.68765 -1.94725e-16 0)
(1.68765 -6.39354e-16 0)
(1.68765 -1.37169e-16 0)
(1.68765 3.40466e-16 0)
(1.68765 2.36372e-16 0)
(1.68765 4.02881e-16 0)
(1.68765 8.99261e-17 0)
(1.68765 3.2304e-16 0)
(1.68765 2.83424e-16 0)
(1.68765 3.04276e-16 0)
(1.68765 4.36348e-16 0)
(1.68765 7.74417e-17 0)
(1.68765 -6.10196e-16 0)
(1.68765 -5.55261e-16 0)
(1.68765 -3.90256e-16 0)
(1.68765 -8.03013e-16 0)
(1.68765 -1.24718e-15 0)
(1.68765 -1.36524e-15 0)
(1.68765 -6.48213e-16 0)
(1.68765 -1.41655e-16 0)
(1.68765 -4.03051e-16 0)
(1.68765 -1.85551e-16 0)
(1.68765 -4.84542e-16 0)
(1.68765 -3.74122e-16 0)
(1.68765 -2.27173e-16 0)
(1.68765 -2.17208e-16 0)
(1.68765 4.78443e-16 0)
(1.68765 8.92672e-16 0)
(1.68765 1.21421e-15 0)
(1.68765 1.24136e-15 0)
(1.68765 9.19853e-16 0)
(1.68765 -1.6194e-16 0)
(1.68765 -5.37264e-16 0)
(1.68765 1.49032e-16 0)
(1.68765 -6.7201e-17 0)
(1.68765 -3.32735e-16 0)
(1.68765 3.04957e-17 0)
(1.68765 1.11475e-15 0)
(1.68765 3.36558e-16 0)
(1.68765 -2.60882e-16 0)
(1.68765 1.46478e-15 0)
(1.68765 1.4247e-15 0)
(1.68765 2.23555e-16 0)
(1.68765 9.02466e-17 0)
(1.68765 1.53943e-15 0)
(1.68765 1.70811e-15 0)
(1.68765 9.18957e-16 0)
(1.68765 7.91158e-16 0)
(1.68765 4.2857e-16 0)
(1.68765 7.11242e-16 0)
(1.68765 1.16972e-15 0)
(1.68765 1.15969e-15 0)
(1.68765 1.27236e-15 0)
(1.68765 6.95792e-16 0)
(1.68765 1.03801e-15 0)
(1.68765 1.93161e-15 0)
(1.68765 1.56836e-15 0)
(1.68765 1.66774e-15 0)
(1.68765 1.2589e-15 0)
(1.68765 -1.36053e-16 0)
(1.68765 -8.90323e-16 0)
(1.68765 -2.56211e-17 0)
(1.68765 4.71283e-16 0)
(1.68765 -1.12914e-15 0)
(1.68765 -1.54613e-15 0)
(1.68765 4.06517e-16 0)
(1.68765 5.39824e-16 0)
(1.68765 -1.56351e-16 0)
(1.68765 -7.04577e-16 0)
(1.68765 -4.08169e-16 0)
(1.68765 -5.34961e-16 0)
(1.68765 -1.17548e-15 0)
(1.68765 -9.14728e-16 0)
(1.68765 1.06984e-15 0)
(1.68765 1.1781e-15 0)
(1.68765 -2.80869e-16 0)
(1.68765 -5.45629e-16 0)
(1.68765 -1.58502e-16 0)
(1.68765 1.1887e-15 0)
(1.68765 7.58354e-16 0)
(1.68765 -6.3635e-16 0)
(1.68765 -8.17737e-16 0)
(1.68765 6.12097e-16 0)
(1.68765 6.91533e-16 0)
(1.68765 2.49261e-17 0)
(1.68765 -1.61999e-16 0)
(1.68765 6.38295e-16 0)
(1.68765 1.16376e-15 0)
(1.68765 2.81036e-16 0)
(1.68765 -2.11489e-16 0)
(1.68765 -3.43599e-16 0)
(1.68765 -4.93892e-16 0)
(1.68765 -7.92237e-16 0)
(1.68765 -8.03338e-16 0)
(1.68765 -5.98894e-16 0)
(1.68765 -2.28797e-16 0)
(1.68765 4.02175e-17 0)
(1.68765 4.26033e-16 0)
(1.68765 -3.70167e-16 0)
(1.68765 -5.31531e-16 0)
(1.68765 5.19486e-16 0)
(1.68765 -6.75849e-16 0)
(1.68765 2.92583e-17 0)
(1.68765 1.38746e-15 0)
(1.68765 4.42317e-16 0)
(1.68765 -3.85306e-16 0)
(1.68765 -7.92603e-16 0)
(1.68765 1.49915e-15 0)
(1.68765 1.66253e-15 0)
(1.68765 -1.61057e-15 0)
(1.68765 -3.17076e-16 0)
(1.68765 2.4288e-15 0)
(1.68765 -6.08143e-16 0)
(1.68765 -1.65215e-15 0)
(1.68765 -5.36527e-17 0)
(1.68765 -6.40833e-16 0)
(1.68765 6.20263e-16 0)
(1.68765 1.08747e-15 0)
(1.68765 -9.28377e-16 0)
(1.68765 -4.4042e-16 0)
(1.68765 -1.54284e-16 0)
(1.68765 -1.28346e-15 0)
(1.68765 -1.2522e-15 0)
(1.68765 -7.68899e-16 0)
(1.68765 1.63133e-15 0)
(1.68765 1.15832e-15 0)
(1.68765 -2.91037e-16 0)
(1.68765 -9.57572e-16 0)
(1.68765 -4.07712e-16 0)
(1.68765 2.82293e-16 0)
(1.68765 -4.2223e-17 0)
(1.68765 -7.79148e-17 0)
(1.68765 -5.0432e-16 0)
(1.68765 1.73969e-15 0)
(1.68765 2.32371e-15 0)
(1.68765 2.82855e-16 0)
(1.68765 4.72587e-16 0)
(1.68765 8.85006e-16 0)
(1.68765 -1.80149e-16 0)
(1.68765 -7.61472e-16 0)
(1.68765 4.72179e-16 0)
(1.68765 8.16385e-16 0)
(1.68765 -8.46071e-16 0)
(1.68765 -8.90351e-16 0)
(1.68765 1.23521e-15 0)
(1.68765 2.27686e-16 0)
(1.68765 -1.4838e-15 0)
(1.68765 -4.90175e-16 0)
(1.68765 -3.35925e-16 0)
(1.68765 1.51056e-16 0)
(1.68765 1.73699e-16 0)
(1.68765 -6.29493e-17 0)
(1.68765 -3.31284e-16 0)
(1.68765 9.21447e-16 0)
(1.68765 1.63738e-16 0)
(1.68765 -1.37638e-15 0)
(1.68765 -1.16147e-15 0)
(1.68765 8.15338e-16 0)
(1.68765 2.57229e-15 0)
(1.68765 1.51346e-15 0)
(1.68765 1.50874e-15 0)
(1.68765 2.09272e-15 0)
(1.68765 -5.91933e-16 0)
(1.68765 -1.80167e-15 0)
(1.68765 1.55219e-16 0)
(1.68765 2.85443e-16 0)
(1.68765 -4.99197e-16 0)
(1.68765 1.82908e-15 0)
(1.68765 1.38441e-15 0)
(1.68765 1.86848e-15 0)
(1.68765 1.69893e-15 0)
(1.68765 -2.02872e-15 0)
(1.68765 -2.25793e-15 0)
(1.68765 -3.18635e-17 0)
(1.68765 3.84899e-16 0)
(1.68765 5.29192e-16 0)
(1.68765 2.5693e-16 0)
(1.68765 -2.63374e-16 0)
(1.68765 4.36954e-16 0)
(1.68765 -2.05617e-15 0)
(1.68765 -4.54089e-16 0)
(1.68765 -1.39319e-15 0)
(1.68765 -2.61071e-16 0)
(1.68765 2.3372e-15 0)
(1.68765 7.61141e-16 0)
(1.68765 -1.36242e-15 0)
(1.68765 -1.36856e-15 0)
(1.68765 -5.59316e-16 0)
(1.68765 -5.92727e-16 0)
(1.68765 -5.16545e-16 0)
(1.68765 -9.4059e-16 0)
(1.68765 6.93301e-16 0)
(1.68765 1.53594e-15 0)
(1.68765 2.35534e-15 0)
(1.68765 1.06013e-16 0)
(1.68765 -6.72538e-17 0)
(1.68765 -5.78207e-16 0)
(1.68765 -4.61027e-16 0)
(1.68765 2.96089e-16 0)
(1.68765 -2.06257e-16 0)
(1.68765 1.42239e-15 0)
(1.68765 1.68987e-15 0)
(1.68765 -1.04999e-16 0)
(1.68765 -1.81726e-16 0)
(1.68765 -5.22445e-16 0)
(1.68765 -6.64961e-16 0)
(1.68765 -8.36966e-16 0)
(1.68765 -6.98511e-16 0)
(1.68765 2.20128e-15 0)
(1.68765 5.07101e-16 0)
(1.68765 3.60105e-17 0)
(1.68765 1.13197e-16 0)
(1.68765 -8.81636e-16 0)
(1.68765 5.46553e-16 0)
(1.68765 1.29474e-15 0)
(1.68765 -3.74889e-16 0)
(1.68765 -2.45264e-17 0)
(1.68765 7.24847e-16 0)
(1.68765 2.36846e-17 0)
(1.68765 -7.91184e-16 0)
(1.68765 -7.76598e-16 0)
(1.68765 3.93727e-16 0)
(1.68765 -8.35679e-17 0)
(1.68765 -3.67025e-16 0)
(1.68765 -1.24432e-15 0)
(1.68765 2.58846e-15 0)
(1.68765 3.84204e-15 0)
(1.68765 -1.2484e-16 0)
(1.68765 1.46306e-16 0)
(1.68765 -2.32765e-15 0)