/*--------------------------------*- C++ -*----------------------------------*\
| =========                 |                                                 |
| \\      /  F ield         | OpenFOAM: The Open Source CFD Toolbox           |
|  \\    /   O peration     | Version:  2406                                  |
|   \\  /    A nd           | Website:  www.openfoam.com                      |
|    \\/     M anipulation  |                                                 |
\*---------------------------------------------------------------------------*/
FoamFile
{
    version     2.0;
    format      ascii;
    arch        "LSB;label=32;scalar=64";
    class       volVectorField;
    location    "13";
    object      U_0;
}
// * * * * * * * * * * * * * * * * * * * * * * * * * * * * * * * * * * * * * //

dimensions      [0 1 -1 0 0 0 0];

internalField   nonuniform List<vector> 
30000
(
(0.249664 -3.45778e-15 0)
(0.249664 -2.89342e-15 0)
(0.249664 -4.38137e-16 0)
(0.249664 6.31597e-17 0)
(0.249664 9.53544e-17 0)
(0.249664 7.96686e-17 0)
(0.249664 9.65201e-17 0)
(0.249664 9.33083e-17 0)
(0.249664 8.26334e-17 0)
(0.249664 9.76987e-17 0)
(0.249664 5.19694e-17 0)
(0.249664 6.92142e-18 0)
(0.249664 3.69447e-17 0)
(0.249664 8.22249e-17 0)
(0.249664 7.24406e-17 0)
(0.249664 -2.40063e-17 0)
(0.249664 -2.07786e-17 0)
(0.249664 4.4377e-17 0)
(0.249664 -6.36478e-17 0)
(0.249664 5.94557e-17 0)
(0.249664 9.28964e-17 0)
(0.249664 -3.56622e-18 0)
(0.249664 3.69815e-17 0)
(0.249664 2.29725e-17 0)
(0.249664 6.77185e-18 0)
(0.249664 4.74215e-17 0)
(0.249664 3.55892e-17 0)
(0.249664 6.63486e-17 0)
(0.249664 -5.93824e-17 0)
(0.249664 -2.97355e-17 0)
(0.249664 5.71342e-17 0)
(0.249664 -1.14482e-16 0)
(0.249664 -5.09634e-19 0)
(0.249664 2.04478e-16 0)
(0.249664 -5.64827e-17 0)
(0.249664 -1.30623e-17 0)
(0.249664 -5.36724e-18 0)
(0.249664 -5.64446e-18 0)
(0.249664 -2.51025e-17 0)
(0.249664 -7.00296e-17 0)
(0.249664 9.21323e-17 0)
(0.249664 -1.08266e-16 0)
(0.249664 1.18706e-16 0)
(0.249664 6.57821e-17 0)
(0.249664 -2.08832e-16 0)
(0.249664 6.94786e-17 0)
(0.249664 1.9293e-16 0)
(0.249664 -6.52761e-17 0)
(0.249664 -5.87181e-17 0)
(0.249664 8.16612e-17 0)
(0.249664 8.50598e-19 0)
(0.249664 1.26997e-16 0)
(0.249664 -2.18721e-16 0)
(0.249664 -2.04434e-16 0)
(0.249664 1.6921e-16 0)
(0.249664 4.96535e-17 0)
(0.249664 1.42063e-16 0)
(0.249664 -1.63537e-16 0)
(0.249664 -1.83415e-16 0)
(0.249664 1.56732e-16 0)
(0.249664 1.39175e-16 0)
(0.249664 -9.32838e-17 0)
(0.249664 2.17294e-17 0)
(0.249664 1.42162e-16 0)
(0.249664 -2.27022e-16 0)
(0.249664 5.41377e-17 0)
(0.249664 1.15301e-16 0)
(0.249664 1.385e-16 0)
(0.249664 5.35026e-17 0)
(0.249664 -1.40027e-16 0)
(0.249664 -1.43596e-16 0)
(0.249664 1.34028e-18 0)
(0.249664 3.15441e-16 0)
(0.249664 -1.65993e-16 0)
(0.249664 -2.46527e-16 0)
(0.249664 3.62455e-16 0)
(0.249664 7.61649e-17 0)
(0.249664 -3.10167e-16 0)
(0.249664 -3.75205e-17 0)
(0.249664 1.86751e-16 0)
(0.249664 2.94921e-17 0)
(0.249664 -6.24015e-17 0)
(0.249664 8.09258e-17 0)
(0.249664 1.54524e-16 0)
(0.249664 -2.56257e-16 0)
(0.249664 1.77801e-16 0)
(0.249664 2.58994e-16 0)
(0.249664 -2.73573e-16 0)
(0.249664 -5.66237e-17 0)
(0.249664 -1.18589e-16 0)
(0.249664 5.13548e-17 0)
(0.249664 2.84705e-16 0)
(0.249664 -8.38536e-17 0)
(0.249664 -1.05787e-17 0)
(0.249664 9.42666e-17 0)
(0.249664 -4.65946e-16 0)
(0.249664 1.11121e-16 0)
(0.249664 3.51975e-16 0)
(0.249664 -1.91963e-16 0)
(0.249664 -1.39824e-16 0)
(0.249664 -1.15086e-17 0)
(0.249664 2.61441e-16 0)
(0.249664 -2.79886e-16 0)
(0.249664 -2.65299e-16 0)
(0.249664 5.56521e-16 0)
(0.249664 -2.38777e-16 0)
(0.249664 -3.21234e-16 0)
(0.249664 1.84842e-16 0)
(0.249664 6.27183e-17 0)
(0.249664 3.29591e-16 0)
(0.249664 -2.10941e-16 0)
(0.249664 -3.10117e-16 0)
(0.249664 2.46039e-16 0)
(0.249664 1.53737e-16 0)
(0.249664 3.2507e-16 0)
(0.249664 -1.15643e-16 0)
(0.249664 -6.17268e-16 0)
(0.249664 1.62347e-17 0)
(0.249664 3.34963e-16 0)
(0.249664 3.49886e-18 0)
(0.249664 -4.27528e-17 0)
(0.249664 8.06637e-17 0)
(0.249664 3.8006e-16 0)
(0.249664 -1.37313e-17 0)
(0.249664 -5.88583e-16 0)
(0.249664 2.67643e-16 0)
(0.249664 2.41022e-16 0)
(0.249664 -2.39927e-16 0)
(0.249664 3.35204e-17 0)
(0.249664 -4.4395e-17 0)
(0.249664 -2.98244e-16 0)
(0.249664 -4.55192e-17 0)
(0.249664 3.12135e-16 0)
(0.249664 -5.71074e-17 0)
(0.249664 -4.86221e-17 0)
(0.249664 3.01597e-17 0)
(0.249664 2.2017e-16 0)
(0.249664 -3.17637e-16 0)
(0.249664 9.31634e-17 0)
(0.249664 3.39396e-16 0)
(0.249664 -3.91412e-16 0)
(0.249664 -4.04359e-16 0)
(0.249664 3.39372e-17 0)
(0.249664 3.50118e-16 0)
(0.249664 -5.65032e-17 0)
(0.249664 -2.81804e-17 0)
(0.249664 3.88776e-16 0)
(0.249664 -2.55265e-16 0)
(0.249664 -3.71529e-16 0)
(0.249664 3.28801e-16 0)
(0.249664 -4.34848e-17 0)
(0.249664 -2.5894e-17 0)
(0.249664 4.14034e-16 0)
(0.249664 -2.89555e-16 0)
(0.249664 -4.89601e-17 0)
(0.249664 2.55242e-16 0)
(0.249664 -6.63077e-16 0)
(0.249664 -3.44124e-16 0)
(0.249664 5.60991e-16 0)
(0.249664 6.62681e-16 0)
(0.249664 -4.32469e-16 0)
(0.249664 -1.04124e-16 0)
(0.249664 -1.76676e-17 0)
(0.249664 -1.81133e-17 0)
(0.249664 -9.04912e-18 0)
(0.249664 -1.54552e-17 0)
(0.249664 1.58925e-17 0)
(0.249664 -5.60938e-16 0)
(0.249664 8.646e-16 0)
(0.249664 1.19837e-16 0)
(0.249664 -8.92502e-16 0)
(0.249664 7.89245e-16 0)
(0.249664 4.10899e-16 0)
(0.249664 -8.32665e-16 0)
(0.249664 1.03504e-16 0)
(0.249664 2.69391e-17 0)
(0.249664 9.6527e-17 0)
(0.249664 -1.16911e-17 0)
(0.249664 -4.28878e-17 0)
(0.249664 3.24727e-16 0)
(0.249664 -5.29246e-16 0)
(0.249664 -9.41504e-17 0)
(0.249664 2.0048e-16 0)
(0.249664 -3.04579e-16 0)
(0.249664 6.60041e-16 0)
(0.249664 4.49731e-17 0)
(0.249664 -5.97965e-16 0)
(0.249664 5.07527e-16 0)
(0.249664 6.01398e-17 0)
(0.249664 -2.5998e-16 0)
(0.249664 -9.04797e-17 0)
(0.249664 -1.0309e-16 0)
(0.249664 -5.38742e-16 0)
(0.249664 4.19734e-16 0)
(0.249664 6.21114e-16 0)
(0.249664 -1.54415e-16 0)
(0.249664 1.90868e-16 0)
(0.249664 4.97894e-16 0)
(0.249664 -6.94355e-16 0)
(0.249664 -5.99679e-16 0)
(0.249664 5.57584e-16 0)
(0.249664 -6.67561e-17 0)
(0.249664 1.02472e-16 0)
(0.249664 6.22206e-17 0)
(0.249664 4.98563e-16 0)
(0.249664 -4.20816e-16 0)
(0.249664 -6.62085e-16 0)
(0.249664 3.99329e-16 0)
(0.249664 4.95109e-17 0)
(0.249664 6.30632e-17 0)
(0.249664 5.88225e-16 0)
(0.249664 -4.30508e-16 0)
(0.249664 -5.1495e-16 0)
(0.249664 1.05338e-15 0)
(0.249664 -5.30713e-16 0)
(0.249664 -6.16612e-16 0)
(0.249664 3.57186e-16 0)
(0.249664 7.58102e-18 0)
(0.249664 2.0588e-16 0)
(0.249664 6.62986e-16 0)
(0.249664 -4.75727e-17 0)
(0.249664 -7.41089e-16 0)
(0.249664 -6.08458e-16 0)
(0.249664 -1.1504e-16 0)
(0.249664 4.47842e-16 0)
(0.249664 -3.97199e-16 0)
(0.249664 5.51634e-16 0)
(0.249664 6.16887e-16 0)
(0.249664 -2.75156e-16 0)
(0.249664 4.70679e-16 0)
(0.249664 -1.31527e-16 0)
(0.249664 -1.13373e-15 0)
(0.249664 3.91964e-16 0)
(0.249664 6.88155e-17 0)
(0.249664 -5.36688e-16 0)
(0.249664 6.02534e-16 0)
(0.249664 1.41402e-16 0)
(0.249664 4.91115e-16 0)
(0.249664 -5.83776e-16 0)
(0.249664 2.93528e-17 0)
(0.249664 -1.31218e-17 0)
(0.249664 -6.35852e-16 0)
(0.249664 5.65989e-16 0)
(0.249664 7.5973e-16 0)
(0.249664 -5.8536e-16 0)
(0.249664 -1.42973e-16 0)
(0.249664 5.77048e-16 0)
(0.249664 -4.85751e-16 0)
(0.249664 -8.03325e-17 0)
(0.249664 -5.45974e-16 0)
(0.249664 -6.17475e-17 0)
(0.249664 1.23628e-16 0)
(0.249664 1.28238e-15 0)
(0.249664 7.95564e-17 0)
(0.249664 -5.77132e-16 0)
(0.249664 5.04832e-16 0)
(0.249664 -6.22541e-16 0)
(0.249664 -7.07283e-16 0)
(0.249664 4.81954e-16 0)
(0.249664 2.26629e-17 0)
(0.249664 1.83597e-16 0)
(0.249664 6.88512e-16 0)
(0.249664 -1.05762e-15 0)
(0.249664 4.46415e-16 0)
(0.249664 -1.07206e-16 0)
(0.249664 -9.58342e-17 0)
(0.249664 2.39341e-16 0)
(0.249664 -5.94051e-16 0)
(0.249664 5.70897e-16 0)
(0.249664 1.50304e-15 0)
(0.249664 -1.17859e-15 0)
(0.249664 -8.14622e-16 0)
(0.249664 4.62906e-16 0)
(0.249664 -4.37395e-16 0)
(0.249664 1.14699e-15 0)
(0.249664 -1.06131e-15 0)
(0.249664 -1.11806e-16 0)
(0.249664 1.2409e-15 0)
(0.249664 1.65799e-16 0)
(0.249664 -6.34113e-16 0)
(0.249664 -1.85408e-16 0)
(0.249664 -1.11914e-16 0)
(0.249664 2.13034e-17 0)
(0.249664 3.07197e-17 0)
(0.249664 -6.26683e-16 0)
(0.249664 1.21322e-15 0)
(0.249664 -3.95679e-16 0)
(0.249664 -7.5228e-16 0)
(0.249664 6.89258e-16 0)
(0.249664 6.45475e-16 0)
(0.249664 -7.28878e-16 0)
(0.249664 -4.65177e-16 0)
(0.249664 5.56791e-16 0)
(0.249664 1.58873e-16 0)
(0.249664 1.14799e-15 0)
(0.249664 7.24047e-16 0)
(0.249664 -1.73948e-15 0)
(0.249664 3.28232e-17 0)
(0.249664 1.24951e-16 0)
(0.249664 -3.35857e-15 0)
(0.738993 -3.8968e-15 0)
(0.738993 -3.86454e-15 0)
(0.738993 -1.06211e-15 0)
(0.738993 -2.80714e-16 0)
(0.738993 -5.59109e-17 0)
(0.738993 -2.00243e-17 0)
(0.738993 1.22111e-16 0)
(0.738993 2.24386e-16 0)
(0.738993 2.13514e-16 0)
(0.738993 2.90183e-17 0)
(0.738993 4.7327e-17 0)
(0.738993 1.08315e-17 0)
(0.738993 4.53944e-17 0)
(0.738993 8.8149e-17 0)
(0.738993 -8.6491e-17 0)
(0.738993 -2.76985e-16 0)
(0.738993 -1.9814e-16 0)
(0.738993 -7.63351e-17 0)
(0.738993 -1.04228e-16 0)
(0.738993 2.33784e-16 0)
(0.738993 1.44171e-16 0)
(0.738993 -2.5658e-17 0)
(0.738993 1.1113e-16 0)
(0.738993 1.04333e-16 0)
(0.738993 9.33411e-17 0)
(0.738993 1.715e-16 0)
(0.738993 1.72068e-16 0)
(0.738993 -7.40931e-19 0)
(0.738993 -2.42661e-16 0)
(0.738993 -9.12343e-17 0)
(0.738993 2.72519e-17 0)
(0.738993 -8.20503e-17 0)
(0.738993 4.45897e-17 0)
(0.738993 3.21045e-16 0)
(0.738993 -1.87865e-16 0)
(0.738993 -1.61608e-16 0)
(0.738993 1.52499e-17 0)
(0.738993 -1.78033e-17 0)
(0.738993 -1.47811e-17 0)
(0.738993 -1.56988e-17 0)
(0.738993 3.29725e-16 0)
(0.738993 -1.68425e-16 0)
(0.738993 -3.90681e-17 0)
(0.738993 2.14438e-16 0)
(0.738993 -1.26944e-16 0)
(0.738993 3.53618e-16 0)
(0.738993 3.45485e-16 0)
(0.738993 -1.48491e-16 0)
(0.738993 -1.01707e-16 0)
(0.738993 4.58948e-17 0)
(0.738993 -1.32766e-16 0)
(0.738993 -1.78009e-16 0)
(0.738993 -5.30054e-16 0)
(0.738993 -3.16185e-16 0)
(0.738993 3.38543e-16 0)
(0.738993 -1.7566e-16 0)
(0.738993 -6.40484e-17 0)
(0.738993 -1.7987e-16 0)
(0.738993 -2.22854e-16 0)
(0.738993 2.09232e-16 0)
(0.738993 1.25035e-16 0)
(0.738993 -6.28349e-17 0)
(0.738993 2.06051e-16 0)
(0.738993 5.43583e-16 0)
(0.738993 8.18605e-17 0)
(0.738993 4.58248e-16 0)
(0.738993 -2.08534e-16 0)
(0.738993 -1.97703e-16 0)
(0.738993 4.27673e-16 0)
(0.738993 -2.97583e-16 0)
(0.738993 -4.08109e-16 0)
(0.738993 1.62534e-16 0)
(0.738993 4.7288e-16 0)
(0.738993 -2.64015e-16 0)
(0.738993 -2.65338e-16 0)
(0.738993 9.20904e-16 0)
(0.738993 2.68739e-16 0)
(0.738993 -4.6746e-16 0)
(0.738993 2.99761e-16 0)
(0.738993 5.37056e-16 0)
(0.738993 5.37638e-17 0)
(0.738993 -8.60998e-17 0)
(0.738993 5.86443e-16 0)
(0.738993 -2.63177e-17 0)
(0.738993 -4.47364e-16 0)
(0.738993 9.72291e-16 0)
(0.738993 4.08316e-16 0)
(0.738993 -3.31516e-16 0)
(0.738993 1.70645e-16 0)
(0.738993 2.78991e-16 0)
(0.738993 2.512e-16 0)
(0.738993 4.33933e-16 0)
(0.738993 3.33848e-16 0)
(0.738993 3.81543e-18 0)
(0.738993 -2.93524e-17 0)
(0.738993 -6.78072e-16 0)
(0.738993 2.18995e-17 0)
(0.738993 4.67613e-16 0)
(0.738993 -5.73106e-16 0)
(0.738993 -6.39608e-16 0)
(0.738993 -1.10591e-16 0)
(0.738993 7.09972e-17 0)
(0.738993 5.7066e-17 0)
(0.738993 2.57298e-16 0)
(0.738993 7.36004e-17 0)
(0.738993 -7.69172e-16 0)
(0.738993 -3.45565e-16 0)
(0.738993 5.41791e-17 0)
(0.738993 2.74792e-16 0)
(0.738993 7.41721e-16 0)
(0.738993 9.59527e-17 0)
(0.738993 -8.42079e-16 0)
(0.738993 -8.86945e-18 0)
(0.738993 1.11537e-15 0)
(0.738993 3.75334e-16 0)
(0.738993 -7.2359e-16 0)
(0.738993 -7.07026e-16 0)
(0.738993 2.39634e-16 0)
(0.738993 6.09601e-16 0)
(0.738993 4.2385e-17 0)
(0.738993 -2.49917e-17 0)
(0.738993 3.20433e-16 0)
(0.738993 7.35833e-16 0)
(0.738993 2.74811e-17 0)
(0.738993 -7.25827e-16 0)
(0.738993 2.58878e-16 0)
(0.738993 2.81412e-17 0)
(0.738993 -4.23515e-16 0)
(0.738993 -7.80081e-17 0)
(0.738993 -2.23446e-16 0)
(0.738993 -4.26707e-16 0)
(0.738993 3.69141e-17 0)
(0.738993 9.90847e-16 0)
(0.738993 -7.92036e-16 0)
(0.738993 -8.24522e-16 0)
(0.738993 6.05502e-16 0)
(0.738993 2.5076e-16 0)
(0.738993 -4.37088e-16 0)
(0.738993 5.63907e-16 0)
(0.738993 2.18484e-16 0)
(0.738993 -9.08341e-16 0)
(0.738993 -4.43178e-16 0)
(0.738993 1.85247e-16 0)
(0.738993 7.46263e-16 0)
(0.738993 -2.37417e-16 0)
(0.738993 3.04181e-17 0)
(0.738993 8.64574e-16 0)
(0.738993 -1.83783e-16 0)
(0.738993 -6.36954e-16 0)
(0.738993 7.53901e-16 0)
(0.738993 -8.45775e-16 0)
(0.738993 -7.00033e-16 0)
(0.738993 1.53963e-15 0)
(0.738993 -5.1014e-16 0)
(0.738993 -4.82346e-16 0)
(0.738993 4.6297e-16 0)
(0.738993 -8.7062e-16 0)
(0.738993 -1.36911e-16 0)
(0.738993 -6.45677e-17 0)
(0.738993 4.38828e-16 0)
(0.738993 3.18803e-16 0)
(0.738993 -5.06214e-16 0)
(0.738993 -3.33389e-16 0)
(0.738993 2.89446e-16 0)
(0.738993 2.45925e-17 0)
(0.738993 8.19375e-17 0)
(0.738993 4.53179e-16 0)
(0.738993 -1.40749e-15 0)
(0.738993 5.33878e-16 0)
(0.738993 1.35842e-15 0)
(0.738993 -1.01883e-15 0)
(0.738993 7.36073e-16 0)
(0.738993 1.30022e-15 0)
(0.738993 -1.09197e-15 0)
(0.738993 -4.139e-16 0)
(0.738993 3.10261e-16 0)
(0.738993 4.95442e-16 0)
(0.738993 2.02484e-16 0)
(0.738993 -4.2283e-16 0)
(0.738993 2.97465e-16 0)
(0.738993 -1.8464e-16 0)
(0.738993 -7.17333e-16 0)
(0.738993 -4.5936e-16 0)
(0.738993 -3.08392e-16 0)
(0.738993 1.04653e-15 0)
(0.738993 3.49764e-16 0)
(0.738993 -4.74785e-16 0)
(0.738993 2.55927e-16 0)
(0.738993 -1.09554e-16 0)
(0.738993 7.47665e-17 0)
(0.738993 -6.03452e-16 0)
(0.738993 -6.11378e-16 0)
(0.738993 -2.50419e-16 0)
(0.738993 1.11375e-15 0)
(0.738993 1.1858e-15 0)
(0.738993 4.22227e-16 0)
(0.738993 8.20636e-16 0)
(0.738993 4.43159e-16 0)
(0.738993 -1.21315e-15 0)
(0.738993 -8.88439e-16 0)
(0.738993 4.96713e-16 0)
(0.738993 -6.33604e-16 0)
(0.738993 1.04883e-15 0)
(0.738993 8.99258e-16 0)
(0.738993 -2.21182e-16 0)
(0.738993 4.15302e-16 0)
(0.738993 -5.14135e-16 0)
(0.738993 -5.59393e-16 0)
(0.738993 4.68243e-16 0)
(0.738993 -3.32575e-16 0)
(0.738993 2.28732e-16 0)
(0.738993 2.72476e-16 0)
(0.738993 -5.24059e-16 0)
(0.738993 7.7833e-16 0)
(0.738993 -2.13988e-16 0)
(0.738993 -3.29984e-16 0)
(0.738993 -4.95316e-16 0)
(0.738993 -1.22271e-16 0)
(0.738993 6.78088e-16 0)
(0.738993 1.01845e-15 0)
(0.738993 -3.12402e-16 0)
(0.738993 -1.221e-15 0)
(0.738993 -4.59308e-16 0)
(0.738993 -1.04649e-15 0)
(0.738993 -2.01079e-16 0)
(0.738993 5.375e-16 0)
(0.738993 2.90116e-16 0)
(0.738993 7.86122e-16 0)
(0.738993 1.36192e-15 0)
(0.738993 9.1189e-17 0)
(0.738993 -8.94431e-16 0)
(0.738993 -1.01691e-15 0)
(0.738993 2.40492e-16 0)
(0.738993 1.80857e-16 0)
(0.738993 -5.92307e-16 0)
(0.738993 9.28176e-16 0)
(0.738993 4.98074e-16 0)
(0.738993 5.94489e-16 0)
(0.738993 -6.77552e-16 0)
(0.738993 4.89546e-17 0)
(0.738993 -1.36863e-16 0)
(0.738993 -9.86829e-16 0)
(0.738993 6.87942e-16 0)
(0.738993 1.28912e-15 0)
(0.738993 -5.51865e-16 0)
(0.738993 -3.62674e-16 0)
(0.738993 6.53851e-16 0)
(0.738993 -6.3041e-16 0)
(0.738993 -1.49227e-16 0)
(0.738993 -5.7159e-16 0)
(0.738993 3.99356e-17 0)
(0.738993 8.70823e-16 0)
(0.738993 1.19006e-15 0)
(0.738993 -3.98047e-16 0)
(0.738993 -2.60672e-16 0)
(0.738993 7.06192e-16 0)
(0.738993 -7.95194e-16 0)
(0.738993 -1.09096e-15 0)
(0.738993 3.53914e-16 0)
(0.738993 -2.32219e-17 0)
(0.738993 7.51316e-16 0)
(0.738993 1.56889e-15 0)
(0.738993 -1.01032e-15 0)
(0.738993 4.28207e-16 0)
(0.738993 -5.83452e-16 0)
(0.738993 -2.01931e-16 0)
(0.738993 1.93834e-15 0)
(0.738993 -1.79138e-15 0)
(0.738993 -3.81097e-16 0)
(0.738993 3.85642e-15 0)
(0.738993 -1.17488e-15 0)
(0.738993 -1.66749e-15 0)
(0.738993 1.91901e-16 0)
(0.738993 -6.81506e-16 0)
(0.738993 1.34583e-15 0)
(0.738993 -1.12705e-15 0)
(0.738993 -9.77845e-17 0)
(0.738993 1.92917e-15 0)
(0.738993 1.08718e-15 0)
(0.738993 -1.47656e-15 0)
(0.738993 -1.45154e-15 0)
(0.738993 -2.89931e-16 0)
(0.738993 9.0959e-17 0)
(0.738993 3.19316e-16 0)
(0.738993 -1.00418e-15 0)
(0.738993 1.62484e-15 0)
(0.738993 -2.32822e-16 0)
(0.738993 -1.44063e-15 0)
(0.738993 8.88449e-16 0)
(0.738993 7.97862e-16 0)
(0.738993 -1.20207e-15 0)
(0.738993 4.0606e-16 0)
(0.738993 -3.19265e-16 0)
(0.738993 -4.90144e-16 0)
(0.738993 3.79378e-15 0)
(0.738993 1.79434e-15 0)
(0.738993 -2.1057e-15 0)
(0.738993 3.96182e-16 0)
(0.738993 -9.04211e-16 0)
(0.738993 -5.09286e-15 0)
(1.21832 -3.84563e-15 0)
(1.21832 -2.72186e-15 0)
(1.21832 -1.50286e-15 0)
(1.21832 -9.889e-16 0)
(1.21832 -6.72572e-16 0)
(1.21832 -4.31282e-16 0)
(1.21832 -2.95032e-16 0)
(1.21832 -1.25343e-17 0)
(1.21832 4.80585e-17 0)
(1.21832 -2.40297e-16 0)
(1.21832 -3.01524e-16 0)
(1.21832 -3.18888e-16 0)
(1.21832 -4.31759e-16 0)
(1.21832 -3.82078e-16 0)
(1.21832 -5.4352e-16 0)
(1.21832 -6.88503e-16 0)
(1.21832 -5.90854e-16 0)
(1.21832 -4.48229e-16 0)
(1.21832 -1.57686e-16 0)
(1.21832 1.16119e-16 0)
(1.21832 1.36523e-16 0)
(1.21832 2.43401e-16 0)
(1.21832 2.41373e-16 0)
(1.21832 -3.28678e-17 0)
(1.21832 6.32944e-17 0)
(1.21832 1.17983e-16 0)
(1.21832 -6.91593e-18 0)
(1.21832 2.76774e-17 0)
(1.21832 -3.50559e-16 0)
(1.21832 -3.1563e-16 0)
(1.21832 -2.37887e-16 0)
(1.21832 6.79415e-17 0)
(1.21832 8.30306e-17 0)
(1.21832 -2.06378e-16 0)
(1.21832 -9.57793e-17 0)
(1.21832 -2.46053e-17 0)
(1.21832 -3.03261e-16 0)
(1.21832 -1.94468e-17 0)
(1.21832 3.3273e-16 0)
(1.21832 5.5627e-17 0)
(1.21832 2.21252e-16 0)
(1.21832 2.14115e-16 0)
(1.21832 -8.72253e-17 0)
(1.21832 8.87678e-17 0)
(1.21832 1.76109e-16 0)
(1.21832 2.31959e-16 0)
(1.21832 4.4826e-16 0)
(1.21832 -2.75832e-16 0)
(1.21832 -2.59289e-16 0)
(1.21832 1.12804e-16 0)
(1.21832 -5.31297e-16 0)
(1.21832 -9.63258e-16 0)
(1.21832 -7.11466e-16 0)
(1.21832 -1.16632e-16 0)
(1.21832 8.9183e-17 0)
(1.21832 -4.1406e-16 0)
(1.21832 1.02593e-16 0)
(1.21832 -4.1726e-16 0)
(1.21832 -3.60155e-16 0)
(1.21832 1.00885e-16 0)
(1.21832 -3.77988e-19 0)
(1.21832 2.40243e-16 0)
(1.21832 2.01076e-16 0)
(1.21832 1.00731e-15 0)
(1.21832 1.02414e-15 0)
(1.21832 3.59387e-16 0)
(1.21832 -2.70519e-16 0)
(1.21832 -2.8509e-16 0)
(1.21832 -9.98206e-17 0)
(1.21832 -1.20118e-16 0)
(1.21832 -5.24387e-17 0)
(1.21832 9.73474e-17 0)
(1.21832 5.43884e-16 0)
(1.21832 -1.14537e-16 0)
(1.21832 -2.31576e-16 0)
(1.21832 1.12055e-15 0)
(1.21832 1.03653e-15 0)
(1.21832 1.83754e-17 0)
(1.21832 3.45454e-16 0)
(1.21832 6.11369e-16 0)
(1.21832 8.91025e-16 0)
(1.21832 6.08656e-16 0)
(1.21832 1.78638e-16 0)
(1.21832 1.30249e-16 0)
(1.21832 4.87894e-16 0)
(1.21832 7.9086e-16 0)
(1.21832 4.54638e-16 0)
(1.21832 9.17198e-16 0)
(1.21832 4.41936e-16 0)
(1.21832 3.06347e-16 0)
(1.21832 8.379e-16 0)
(1.21832 9.24108e-16 0)
(1.21832 6.72961e-16 0)
(1.21832 6.85888e-16 0)
(1.21832 3.0983e-16 0)
(1.21832 -1.09502e-15 0)
(1.21832 -4.91988e-16 0)
(1.21832 7.4197e-16 0)
(1.21832 -8.38279e-16 0)
(1.21832 -1.45535e-15 0)
(1.21832 3.59093e-16 0)
(1.21832 2.31739e-16 0)
(1.21832 -3.21387e-16 0)
(1.21832 -4.82803e-16 0)
(1.21832 -1.7309e-16 0)
(1.21832 -8.15956e-17 0)
(1.21832 -5.83955e-16 0)
(1.21832 -7.04272e-16 0)
(1.21832 6.51322e-16 0)
(1.21832 1.07357e-15 0)
(1.21832 -3.56579e-17 0)
(1.21832 -5.61133e-16 0)
(1.21832 -3.67699e-16 0)
(1.21832 1.46622e-15 0)
(1.21832 9.19252e-16 0)
(1.21832 -1.56525e-15 0)
(1.21832 -6.41261e-16 0)
(1.21832 1.18542e-15 0)
(1.21832 5.84411e-16 0)
(1.21832 -9.12522e-17 0)
(1.21832 -1.58256e-16 0)
(1.21832 8.85637e-16 0)
(1.21832 1.09969e-15 0)
(1.21832 -2.02557e-16 0)
(1.21832 -3.10583e-16 0)
(1.21832 5.20799e-17 0)
(1.21832 -1.02334e-15 0)
(1.21832 -6.13371e-16 0)
(1.21832 1.43513e-16 0)
(1.21832 -5.73431e-16 0)
(1.21832 5.06233e-17 0)
(1.21832 -2.88015e-16 0)
(1.21832 1.62882e-16 0)
(1.21832 -3.04914e-16 0)
(1.21832 -2.85836e-16 0)
(1.21832 5.27224e-17 0)
(1.21832 -3.3673e-16 0)
(1.21832 -5.91501e-16 0)
(1.21832 5.96975e-16 0)
(1.21832 1.31355e-15 0)
(1.21832 -7.30498e-16 0)
(1.21832 -1.01667e-15 0)
(1.21832 9.9822e-16 0)
(1.21832 1.30562e-15 0)
(1.21832 -1.06091e-15 0)
(1.21832 -5.80886e-16 0)
(1.21832 1.8801e-15 0)
(1.21832 4.48999e-16 0)
(1.21832 -1.46723e-15 0)
(1.21832 -4.0556e-16 0)
(1.21832 -5.65521e-16 0)
(1.21832 3.19492e-16 0)
(1.21832 9.23751e-16 0)
(1.21832 -4.50102e-16 0)
(1.21832 -2.52306e-16 0)
(1.21832 -1.98247e-16 0)
(1.21832 -7.14259e-16 0)
(1.21832 -7.1652e-16 0)
(1.21832 -3.17249e-16 0)
(1.21832 8.16785e-16 0)
(1.21832 -3.13721e-16 0)
(1.21832 -4.89854e-16 0)
(1.21832 5.81949e-16 0)
(1.21832 3.57668e-18 0)
(1.21832 -2.4071e-16 0)
(1.21832 -8.23858e-17 0)
(1.21832 -1.78362e-16 0)
(1.21832 -3.88912e-16 0)
(1.21832 6.63055e-16 0)
(1.21832 1.22761e-15 0)
(1.21832 6.20328e-16 0)
(1.21832 -2.43366e-17 0)
(1.21832 7.91014e-16 0)
(1.21832 7.98312e-16 0)
(1.21832 -1.14722e-15 0)
(1.21832 -2.33641e-16 0)
(1.21832 1.48426e-15 0)
(1.21832 -6.50569e-16 0)
(1.21832 -6.20433e-16 0)
(1.21832 1.24655e-15 0)
(1.21832 -4.17027e-16 0)
(1.21832 -9.10789e-16 0)
(1.21832 -1.08187e-15 0)
(1.21832 -9.72853e-16 0)
(1.21832 1.44493e-15 0)
(1.21832 6.91709e-16 0)
(1.21832 -1.02902e-15 0)
(1.21832 2.40525e-16 0)
(1.21832 1.03664e-15 0)
(1.21832 -4.84408e-16 0)
(1.21832 -7.38182e-16 0)
(1.21832 -8.73608e-16 0)
(1.21832 5.54618e-17 0)
(1.21832 2.27775e-15 0)
(1.21832 7.82238e-16 0)
(1.21832 1.57717e-15 0)
(1.21832 2.36352e-15 0)
(1.21832 -1.20793e-15 0)
(1.21832 -1.69978e-15 0)
(1.21832 1.29773e-16 0)
(1.21832 9.02755e-17 0)
(1.21832 -6.41712e-16 0)
(1.21832 1.90471e-15 0)
(1.21832 3.84058e-16 0)
(1.21832 8.38624e-16 0)
(1.21832 1.86946e-15 0)
(1.21832 -2.01797e-15 0)
(1.21832 -1.99423e-15 0)
(1.21832 -1.99466e-16 0)
(1.21832 9.93546e-16 0)
(1.21832 7.13004e-16 0)
(1.21832 8.73121e-16 0)
(1.21832 -5.57172e-16 0)
(1.21832 1.3457e-16 0)
(1.21832 -6.18206e-16 0)
(1.21832 -6.53966e-16 0)
(1.21832 -1.37702e-15 0)
(1.21832 -1.69689e-16 0)
(1.21832 2.15114e-15 0)
(1.21832 6.52233e-16 0)
(1.21832 -1.3062e-15 0)
(1.21832 -1.73932e-15 0)
(1.21832 -1.10085e-16 0)
(1.21832 -1.04584e-15 0)
(1.21832 1.87973e-16 0)
(1.21832 -2.48208e-16 0)
(1.21832 -1.39664e-16 0)
(1.21832 2.3416e-15 0)
(1.21832 2.06549e-15 0)
(1.21832 -7.21775e-16 0)
(1.21832 -3.74824e-16 0)
(1.21832 -7.75842e-16 0)
(1.21832 -1.50446e-15 0)
(1.21832 1.1964e-15 0)
(1.21832 2.85417e-16 0)
(1.21832 7.87499e-16 0)
(1.21832 1.48901e-15 0)
(1.21832 -1.3595e-16 0)
(1.21832 -8.29212e-17 0)
(1.21832 2.94451e-16 0)
(1.21832 -9.09616e-16 0)
(1.21832 -1.23436e-15 0)
(1.21832 -4.41394e-17 0)
(1.21832 1.63595e-15 0)
(1.21832 9.27865e-16 0)
(1.21832 -1.1951e-15 0)
(1.21832 6.54589e-16 0)
(1.21832 4.62359e-16 0)
(1.21832 -5.23209e-16 0)
(1.21832 -1.13965e-17 0)
(1.21832 -1.13293e-16 0)
(1.21832 -2.3726e-16 0)
(1.21832 1.88351e-15 0)
(1.21832 6.08224e-17 0)
(1.21832 -2.12849e-15 0)
(1.21832 1.03924e-15 0)
(1.21832 6.82924e-16 0)
(1.21832 -7.89625e-16 0)
(1.21832 -2.25164e-16 0)
(1.21832 -1.96688e-16 0)
(1.21832 1.17973e-15 0)
(1.21832 2.51351e-15 0)
(1.21832 5.38598e-16 0)
(1.21832 -8.8377e-17 0)
(1.21832 -2.40017e-15 0)
(1.21832 -1.51148e-15 0)
(1.21832 2.90424e-15 0)
(1.21832 -5.46482e-16 0)
(1.21832 6.58592e-16 0)
(1.21832 4.27187e-15 0)
(1.21832 -6.30896e-16 0)
(1.21832 -2.29573e-15 0)
(1.21832 -1.33374e-15 0)
(1.21832 -7.47174e-16 0)
(1.21832 9.372e-16 0)
(1.21832 -9.92364e-16 0)
(1.21832 -3.24137e-16 0)
(1.21832 2.63239e-15 0)
(1.21832 1.04659e-15 0)
(1.21832 -5.04368e-16 0)
(1.21832 -1.71548e-15 0)
(1.21832 -2.97445e-15 0)
(1.21832 -2.38993e-16 0)
(1.21832 1.6508e-15 0)
(1.21832 -1.75982e-15 0)
(1.21832 1.17396e-15 0)
(1.21832 8.77896e-16 0)
(1.21832 -2.4553e-15 0)
(1.21832 1.10027e-15 0)
(1.21832 -4.98948e-16 0)
(1.21832 -2.30693e-15 0)
(1.21832 1.43876e-16 0)
(1.21832 1.95223e-16 0)
(1.21832 1.18541e-15 0)
(1.21832 4.74746e-15 0)
(1.21832 9.29769e-16 0)
(1.21832 -1.96929e-15 0)
(1.21832 -4.96235e-16 0)
(1.21832 -1.59355e-15 0)
(1.21832 -2.23457e-15 0)
(1.68765 -2.11862e-15 0)
(1.68765 -2.24988e-15 0)
(1.68765 -2.13678e-15 0)
(1.68765 -1.80315e-15 0)
(1.68765 -1.25038e-15 0)
(1.68765 -9.61004e-16 0)
(1.68765 -7.56771e-16 0)
(1.68765 -6.22181e-16 0)
(1.68765 -6.01367e-16 0)
(1.68765 -6.63311e-16 0)
(1.68765 -7.66647e-16 0)
(1.68765 -9.10408e-16 0)
(1.68765 -1.07973e-15 0)
(1.68765 -1.11414e-15 0)
(1.68765 -1.09845e-15 0)
(1.68765 -1.41813e-15 0)
(1.68765 -1.20956e-15 0)
(1.68765 -1.10734e-15 0)
(1.68765 -4.91469e-16 0)
(1.68765 -1.09527e-16 0)
(1.68765 1.02165e-16 0)
(1.68765 5.24521e-17 0)
(1.68765 2.7105e-16 0)
(1.68765 -1.88068e-16 0)
(1.68765 -1.67434e-16 0)
(1.68765 -1.7982e-17 0)
(1.68765 -2.26299e-16 0)
(1.68765 -1.4546e-16 0)
(1.68765 -5.02687e-16 0)
(1.68765 -6.86545e-16 0)
(1.68765 -6.92938e-16 0)
(1.68765 -3.45014e-16 0)
(1.68765 -7.60167e-17 0)
(1.68765 1.5421e-16 0)
(1.68765 -4.19904e-17 0)
(1.68765 -1.85676e-16 0)
(1.68765 -4.74345e-16 0)
(1.68765 -3.05125e-18 0)
(1.68765 4.57624e-16 0)
(1.68765 2.80454e-16 0)
(1.68765 3.52246e-16 0)
(1.68765 6.04111e-17 0)
(1.68765 8.85982e-17 0)
(1.68765 1.42152e-16 0)
(1.68765 1.72293e-16 0)
(1.68765 4.95071e-16 0)
(1.68765 9.39154e-18 0)
(1.68765 -6.31479e-16 0)
(1.68765 -5.88212e-16 0)
(1.68765 -6.10098e-16 0)
(1.68765 -7.12604e-16 0)
(1.68765 -9.38441e-16 0)
(1.68765 -1.26842e-15 0)
(1.68765 -4.99226e-16 0)
(1.68765 -1.41072e-16 0)
(1.68765 -4.46209e-16 0)
(1.68765 -1.87981e-16 0)
(1.68765 -4.4474e-16 0)
(1.68765 -3.58739e-16 0)
(1.68765 -1.64854e-16 0)
(1.68765 -2.57511e-16 0)
(1.68765 4.22442e-16 0)
(1.68765 8.72952e-16 0)
(1.68765 1.19257e-15 0)
(1.68765 1.21279e-15 0)
(1.68765 8.51454e-16 0)
(1.68765 -2.3321e-16 0)
(1.68765 -5.8857e-16 0)
(1.68765 1.28204e-16 0)
(1.68765 1.94511e-17 0)
(1.68765 -1.83857e-16 0)
(1.68765 5.42989e-17 0)
(1.68765 1.14648e-15 0)
(1.68765 4.34759e-16 0)
(1.68765 -6.19075e-17 0)
(1.68765 1.56299e-15 0)
(1.68765 1.33714e-15 0)
(1.68765 1.54224e-16 0)
(1.68765 1.84022e-16 0)
(1.68765 1.58227e-15 0)
(1.68765 1.77027e-15 0)
(1.68765 9.20879e-16 0)
(1.68765 6.98893e-16 0)
(1.68765 4.10456e-16 0)
(1.68765 7.43863e-16 0)
(1.68765 1.28714e-15 0)
(1.68765 1.0982e-15 0)
(1.68765 1.19296e-15 0)
(1.68765 6.43941e-16 0)
(1.68765 9.27239e-16 0)
(1.68765 1.90086e-15 0)
(1.68765 1.59026e-15 0)
(1.68765 1.51289e-15 0)
(1.68765 1.07915e-15 0)
(1.68765 -1.61583e-16 0)
(1.68765 -7.34472e-16 0)
(1.68765 -1.44826e-16 0)
(1.68765 2.86743e-16 0)
(1.68765 -1.08637e-15 0)
(1.68765 -1.37716e-15 0)
(1.68765 3.37285e-16 0)
(1.68765 5.48607e-16 0)
(1.68765 -2.41073e-16 0)
(1.68765 -7.35922e-16 0)
(1.68765 -4.19115e-16 0)
(1.68765 -4.04774e-16 0)
(1.68765 -1.08926e-15 0)
(1.68765 -7.98161e-16 0)
(1.68765 1.1326e-15 0)
(1.68765 1.23592e-15 0)
(1.68765 -9.08501e-17 0)
(1.68765 -4.67959e-16 0)
(1.68765 -6.01906e-17 0)
(1.68765 1.39881e-15 0)
(1.68765 9.36044e-16 0)
(1.68765 -6.3038e-16 0)
(1.68765 -8.47416e-16 0)
(1.68765 6.45197e-16 0)
(1.68765 8.50655e-16 0)
(1.68765 1.39457e-16 0)
(1.68765 -1.58418e-16 0)
(1.68765 7.22075e-16 0)
(1.68765 1.24601e-15 0)
(1.68765 1.08812e-16 0)
(1.68765 -2.97529e-16 0)
(1.68765 -3.58223e-16 0)
(1.68765 -5.73119e-16 0)
(1.68765 -7.97278e-16 0)
(1.68765 -7.61834e-16 0)
(1.68765 -6.05029e-16 0)
(1.68765 -1.15984e-16 0)
(1.68765 5.18487e-17 0)
(1.68765 4.74551e-16 0)
(1.68765 -3.50504e-16 0)
(1.68765 -5.05266e-16 0)
(1.68765 4.72075e-16 0)
(1.68765 -8.88061e-16 0)
(1.68765 -5.78596e-17 0)
(1.68765 1.35648e-15 0)
(1.68765 3.93659e-16 0)
(1.68765 -3.63051e-16 0)
(1.68765 -7.35648e-16 0)
(1.68765 1.45408e-15 0)
(1.68765 1.65721e-15 0)
(1.68765 -1.65389e-15 0)
(1.68765 -3.5002e-16 0)
(1.68765 2.49804e-15 0)
(1.68765 -5.41163e-16 0)
(1.68765 -1.56667e-15 0)
(1.68765 -2.41671e-18 0)
(1.68765 -6.70191e-16 0)
(1.68765 5.71304e-16 0)
(1.68765 1.07436e-15 0)
(1.68765 -9.9269e-16 0)
(1.68765 -4.85187e-16 0)
(1.68765 -2.2817e-16 0)
(1.68765 -1.43766e-15 0)
(1.68765 -1.496e-15 0)
(1.68765 -9.15859e-16 0)
(1.68765 1.56044e-15 0)
(1.68765 1.0658e-15 0)
(1.68765 -2.86857e-16 0)
(1.68765 -1.03973e-15 0)
(1.68765 -5.39254e-16 0)
(1.68765 3.63961e-16 0)
(1.68765 -4.90038e-17 0)
(1.68765 -1.93018e-16 0)
(1.68765 -5.95112e-16 0)
(1.68765 1.71938e-15 0)
(1.68765 2.34513e-15 0)
(1.68765 2.54292e-16 0)
(1.68765 5.11174e-16 0)
(1.68765 9.2186e-16 0)
(1.68765 -1.96018e-16 0)
(1.68765 -7.46712e-16 0)
(1.68765 4.86837e-16 0)
(1.68765 7.30382e-16 0)
(1.68765 -8.26039e-16 0)
(1.68765 -9.23364e-16 0)
(1.68765 1.24003e-15 0)
(1.68765 2.5083e-16 0)
(1.68765 -1.45385e-15 0)
(1.68765 -4.0063e-16 0)
(1.68765 -3.42531e-16 0)
(1.68765 1.50403e-17 0)
(1.68765 1.22129e-16 0)
(1.68765 -9.86714e-17 0)
(1.68765 -2.89484e-16 0)
(1.68765 1.128e-15 0)
(1.68765 3.13613e-16 0)
(1.68765 -1.32829e-15 0)
(1.68765 -9.45564e-16 0)
(1.68765 9.89891e-16 0)
(1.68765 2.64037e-15 0)
(1.68765 1.58447e-15 0)
(1.68765 1.53658e-15 0)
(1.68765 2.09363e-15 0)
(1.68765 -4.56392e-16 0)
(1.68765 -1.72735e-15 0)
(1.68765 3.97473e-16 0)
(1.68765 3.20029e-16 0)
(1.68765 -6.95192e-16 0)
(1.68765 1.73208e-15 0)
(1.68765 1.42979e-15 0)
(1.68765 1.89527e-15 0)
(1.68765 1.70061e-15 0)
(1.68765 -2.09572e-15 0)
(1.68765 -2.23142e-15 0)
(1.68765 7.02302e-17 0)
(1.68765 4.43173e-16 0)
(1.68765 6.40469e-16 0)
(1.68765 4.65227e-16 0)
(1.68765 -1.71505e-16 0)
(1.68765 2.90128e-16 0)
(1.68765 -2.03417e-15 0)
(1.68765 -2.85068e-16 0)
(1.68765 -1.3876e-15 0)
(1.68765 -3.54339e-16 0)
(1.68765 2.2405e-15 0)
(1.68765 6.35378e-16 0)
(1.68765 -1.45765e-15 0)
(1.68765 -1.33209e-15 0)
(1.68765 -6.16918e-16 0)
(1.68765 -7.23751e-16 0)
(1.68765 -4.6389e-16 0)
(1.68765 -8.45268e-16 0)
(1.68765 7.52974e-16 0)
(1.68765 1.54462e-15 0)
(1.68765 2.36403e-15 0)
(1.68765 2.42486e-16 0)
(1.68765 3.49488e-17 0)
(1.68765 -6.21346e-16 0)
(1.68765 -5.02866e-16 0)
(1.68765 3.27907e-16 0)
(1.68765 -1.22653e-16 0)
(1.68765 1.36927e-15 0)
(1.68765 1.8728e-15 0)
(1.68765 3.51078e-17 0)
(1.68765 1.91622e-17 0)
(1.68765 -5.09992e-16 0)
(1.68765 -5.61204e-16 0)
(1.68765 -5.39674e-16 0)
(1.68765 -6.3997e-16 0)
(1.68765 2.30557e-15 0)
(1.68765 6.33572e-16 0)
(1.68765 1.52438e-16 0)
(1.68765 1.12605e-16 0)
(1.68765 -8.7818e-16 0)
(1.68765 5.1086e-16 0)
(1.68765 1.12226e-15 0)
(1.68765 -4.87158e-16 0)
(1.68765 -7.38576e-18 0)
(1.68765 6.56519e-16 0)
(1.68765 3.87611e-17 0)
(1.68765 -6.68689e-16 0)
(1.68765 -7.74656e-16 0)
(1.68765 5.69856e-16 0)
(1.68765 4.36054e-17 0)
(1.68765 -2.32274e-16 0)
(1.68765 -1.28321e-15 0)
(1.68765 2.61041e-15 0)
(1.68765 3.96067e-15 0)
(1.68765 1.05296e-16 0)
(1.68765 3.46462e-16 0)
(1.68765 -2.09151e-15 0)
(1.68765 -2.29222e-15 0)
(1.68765 3.13387e-15 0)