# Probe 0  0.1445 0 0.0045
# Time        0            
0.0001         1.00347 0 0.000204267
0.0002         0.974974 0 -0.00442412
0.0003         0.974615 0 -0.00445114
0.0004         0.974376 0 -0.00447026
0.0005         0.974195 0 -0.0044851
0.0006         0.97405 0 -0.00449734
0.0007         0.973929 0 -0.00450784
0.0008         0.973827 0 -0.00451699
0.0009         0.973738 0 -0.00452511
0.001          0.973661 0 -0.00453239
0.0011         0.973592 0 -0.00453897
0.0012         0.973531 0 -0.00454495
0.0013         0.973475 0 -0.00455047
0.0014         0.973425 0 -0.00455554
0.0015         0.97338 0 -0.00456024
0.0016         0.973338 0 -0.0045646
0.0017         0.9733 0 -0.00456868
0.0018         0.973264 0 -0.00457249
0.0019         0.973232 0 -0.00457607
0.002          0.973202 0 -0.00457942
0.0021         0.973173 0 -0.00458259
0.0022         0.973147 0 -0.00458558
0.0023         0.973123 0 -0.0045884
0.0024         0.9731 0 -0.00459107
0.0025         0.973078 0 -0.00459361
0.0026         0.973058 0 -0.00459602
0.0027         0.97304 0 -0.00459832
0.0028         0.973022 0 -0.0046005
0.0029         0.973005 0 -0.00460258
0.003          0.972989 0 -0.00460457
0.0031         0.972974 0 -0.00460647
0.0032         0.97296 0 -0.00460829
0.0033         0.972947 0 -0.00461003
0.0034         0.972935 0 -0.0046117
0.0035         0.972923 0 -0.0046133
0.0036         0.972911 0 -0.00461483
0.0037         0.972901 0 -0.00461631
0.0038         0.97289 0 -0.00461773
0.0039         0.972881 0 -0.0046191
0.004          0.972872 0 -0.00462042
0.0041         0.972863 0 -0.0046217
0.0042         0.972855 0 -0.00462292
0.0043         0.972847 0 -0.00462411
0.0044         0.972839 0 -0.00462525
0.0045         0.972832 0 -0.00462636
0.0046         0.972825 0 -0.00462743
0.0047         0.972818 0 -0.00462847
0.0048         0.972812 0 -0.00462947
0.0049         0.972806 0 -0.00463045
0.005          0.972801 0 -0.00463139
0.0051         0.972795 0 -0.00463231
0.0052         0.97279 0 -0.00463321
0.0053         0.972785 0 -0.00463408
0.0054         0.97278 0 -0.00463492
0.0055         0.972776 0 -0.00463574
0.0056         0.972771 0 -0.00463654
0.0057         0.972767 0 -0.00463732
0.0058         0.972763 0 -0.00463808
0.0059         0.972759 0 -0.00463883
0.006          0.972755 0 -0.00463955
0.0061         0.972752 0 -0.00464026
0.0062         0.972748 0 -0.00464095
0.0063         0.972745 0 -0.00464164
0.0064         0.972742 0 -0.0046423
0.0065         0.972739 0 -0.00464296
0.0066         0.972736 0 -0.0046436
0.0067         0.972733 0 -0.00464423
0.0068         0.972731 0 -0.00464484
0.0069         0.972728 0 -0.00464545
0.007          0.972726 0 -0.00464605
0.0071         0.972723 0 -0.00464664
0.0072         0.972721 0 -0.00464722
0.0073         0.972719 0 -0.00464779
0.0074         0.972716 0 -0.00464836
0.0075         0.972714 0 -0.00464892
0.0076         0.972712 0 -0.00464947
0.0077         0.97271 0 -0.00465002
0.0078         0.972708 0 -0.00465056
0.0079         0.972707 0 -0.0046511
0.008          0.972705 0 -0.00465163
0.0081         0.972703 0 -0.00465217
0.0082         0.972701 0 -0.00465269
0.0083         0.9727 0 -0.00465321
0.0084         0.972698 0 -0.00465373
0.0085         0.972697 0 -0.00465425
0.0086         0.972695 0 -0.00465477
0.0087         0.972694 0 -0.00465528
0.0088         0.972692 0 -0.00465579
0.0089         0.972691 0 -0.00465631
0.009          0.97269 0 -0.00465682
0.0091         0.972689 0 -0.00465733
0.0092         0.972687 0 -0.00465784
0.0093         0.972686 0 -0.00465836
0.0094         0.972685 0 -0.00465887
0.0095         0.972684 0 -0.00465939
0.0096         0.972682 0 -0.0046599
0.0097         0.972681 0 -0.00466042
0.0098         0.97268 0 -0.00466094
0.0099         0.972679 0 -0.00466146
0.01           0.972678 0 -0.00466199
0.0101         0.972677 0 -0.00466252
0.0102         0.972676 0 -0.00466305
0.0103         0.972675 0 -0.00466359
0.0104         0.972674 0 -0.00466413
0.0105         0.972673 0 -0.00466467
0.0106         0.972672 0 -0.00466522
0.0107         0.972671 0 -0.00466577
0.0108         0.97267 0 -0.00466633
0.0109         0.972669 0 -0.00466689
0.011          0.972669 0 -0.00466746
0.0111         0.972668 0 -0.00466804
0.0112         0.972667 0 -0.00466862
0.0113         0.972666 0 -0.00466921
0.0114         0.972665 0 -0.0046698
0.0115         0.972664 0 -0.0046704
0.0116         0.972663 0 -0.00467101
0.0117         0.972663 0 -0.00467163
0.0118         0.972662 0 -0.00467225
0.0119         0.972661 0 -0.00467289
0.012          0.97266 0 -0.00467353
0.0121         0.972659 0 -0.00467418
0.0122         0.972659 0 -0.00467484
0.0123         0.972658 0 -0.00467552
0.0124         0.972657 0 -0.00467619
0.0125         0.972656 0 -0.00467689
0.0126         0.972656 0 -0.00467759
0.0127         0.972655 0 -0.0046783
0.0128         0.972654 0 -0.00467902
0.0129         0.972653 0 -0.00467976
0.013          0.972653 0 -0.0046805
0.0131         0.972652 0 -0.00468126
0.0132         0.972651 0 -0.00468203
0.0133         0.97265 0 -0.00468282
0.0134         0.97265 0 -0.00468361
0.0135         0.972649 0 -0.00468442
0.0136         0.972648 0 -0.00468524
0.0137         0.972647 0 -0.00468608
0.0138         0.972647 0 -0.00468693
0.0139         0.972646 0 -0.0046878
0.014          0.972645 0 -0.00468868
0.0141         0.972644 0 -0.00468958
0.0142         0.972644 0 -0.00469049
0.0143         0.972643 0 -0.00469142
0.0144         0.972642 0 -0.00469237
0.0145         0.972642 0 -0.00469333
0.0146         0.972641 0 -0.00469431
0.0147         0.97264 0 -0.00469531
0.0148         0.97264 0 -0.00469632
0.0149         0.972639 0 -0.00469735
0.015          0.972638 0 -0.0046984
0.0151         0.972637 0 -0.00469947
0.0152         0.972637 0 -0.00470056
0.0153         0.972636 0 -0.00470167
0.0154         0.972635 0 -0.0047028
0.0155         0.972635 0 -0.00470394
0.0156         0.972634 0 -0.00470511
0.0157         0.972633 0 -0.0047063
0.0158         0.972633 0 -0.00470751
0.0159         0.972632 0 -0.00470874
0.016          0.972631 0 -0.00470999
0.0161         0.972631 0 -0.00471126
0.0162         0.97263 0 -0.00471256
0.0163         0.972629 0 -0.00471387
0.0164         0.972629 0 -0.00471521
0.0165         0.972628 0 -0.00471658
0.0166         0.972627 0 -0.00471796
0.0167         0.972627 0 -0.00471937
0.0168         0.972626 0 -0.0047208
0.0169         0.972625 0 -0.00472225
0.017          0.972625 0 -0.00472373
0.0171         0.972624 0 -0.00472523
0.0172         0.972623 0 -0.00472676
0.0173         0.972623 0 -0.00472831
0.0174         0.972622 0 -0.00472989
0.0175         0.972622 0 -0.00473148
0.0176         0.972621 0 -0.00473311
0.0177         0.97262 0 -0.00473475
0.0178         0.97262 0 -0.00473643
0.0179         0.972619 0 -0.00473812
0.018          0.972619 0 -0.00473985
0.0181         0.972618 0 -0.00474159
0.0182         0.972618 0 -0.00474336
0.0183         0.972617 0 -0.00474516
0.0184         0.972617 0 -0.00474698
0.0185         0.972616 0 -0.00474882
0.0186         0.972616 0 -0.00475069
0.0187         0.972615 0 -0.00475258
0.0188         0.972615 0 -0.0047545
0.0189         0.972614 0 -0.00475644
0.019          0.972614 0 -0.00475841
0.0191         0.972614 0 -0.00476039
0.0192         0.972613 0 -0.0047624
0.0193         0.972613 0 -0.00476444
0.0194         0.972612 0 -0.00476649
0.0195         0.972612 0 -0.00476857
0.0196         0.972612 0 -0.00477067
0.0197         0.972612 0 -0.00477279
0.0198         0.972611 0 -0.00477494
0.0199         0.972611 0 -0.0047771
0.02           0.972611 0 -0.00477928
0.0201         0.972611 0 -0.00478148
0.0202         0.97261 0 -0.0047837
0.0203         0.97261 0 -0.00478594
0.0204         0.97261 0 -0.0047882
0.0205         0.97261 0 -0.00479047
0.0206         0.97261 0 -0.00479276
0.0207         0.97261 0 -0.00479507
0.0208         0.97261 0 -0.00479739
0.0209         0.97261 0 -0.00479972
0.021          0.97261 0 -0.00480207
0.0211         0.97261 0 -0.00480443
0.0212         0.97261 0 -0.0048068
0.0213         0.97261 0 -0.00480918
0.0214         0.97261 0 -0.00481157
0.0215         0.97261 0 -0.00481396
0.0216         0.97261 0 -0.00481637
0.0217         0.97261 0 -0.00481878
0.0218         0.972611 0 -0.0048212
0.0219         0.972611 0 -0.00482362
0.022          0.972611 0 -0.00482604
0.0221         0.972612 0 -0.00482846
0.0222         0.972612 0 -0.00483089
0.0223         0.972612 0 -0.00483331
0.0224         0.972613 0 -0.00483573
0.0225         0.972613 0 -0.00483815
0.0226         0.972614 0 -0.00484057
0.0227         0.972614 0 -0.00484297
0.0228         0.972615 0 -0.00484537
0.0229         0.972615 0 -0.00484776
0.023          0.972616 0 -0.00485014
0.0231         0.972617 0 -0.00485251
0.0232         0.972617 0 -0.00485486
0.0233         0.972618 0 -0.0048572
0.0234         0.972619 0 -0.00485952
0.0235         0.97262 0 -0.00486182
0.0236         0.97262 0 -0.0048641
0.0237         0.972621 0 -0.00486637
0.0238         0.972622 0 -0.0048686
0.0239         0.972623 0 -0.00487082
0.024          0.972624 0 -0.004873
0.0241         0.972625 0 -0.00487516
0.0242         0.972626 0 -0.00487729
0.0243         0.972627 0 -0.00487939
0.0244         0.972628 0 -0.00488145
0.0245         0.97263 0 -0.00488348
0.0246         0.972631 0 -0.00488547
0.0247         0.972632 0 -0.00488743
0.0248         0.972633 0 -0.00488934
0.0249         0.972634 0 -0.00489121
0.025          0.972636 0 -0.00489304
0.0251         0.972637 0 -0.00489483
0.0252         0.972639 0 -0.00489657
0.0253         0.97264 0 -0.00489826
0.0254         0.972641 0 -0.0048999
0.0255         0.972643 0 -0.00490148
0.0256         0.972644 0 -0.00490302
0.0257         0.972646 0 -0.0049045
0.0258         0.972648 0 -0.00490592
0.0259         0.972649 0 -0.00490729
0.026          0.972651 0 -0.0049086
0.0261         0.972652 0 -0.00490985
0.0262         0.972654 0 -0.00491103
0.0263         0.972656 0 -0.00491215
0.0264         0.972658 0 -0.00491321
0.0265         0.972659 0 -0.0049142
0.0266         0.972661 0 -0.00491512
0.0267         0.972663 0 -0.00491598
0.0268         0.972665 0 -0.00491676
0.0269         0.972667 0 -0.00491747
0.027          0.972668 0 -0.00491812
0.0271         0.97267 0 -0.00491868
0.0272         0.972672 0 -0.00491918
0.0273         0.972674 0 -0.0049196
0.0274         0.972676 0 -0.00491994
0.0275         0.972678 0 -0.00492021
0.0276         0.97268 0 -0.00492039
0.0277         0.972682 0 -0.0049205
0.0278         0.972684 0 -0.00492053
0.0279         0.972686 0 -0.00492049
0.028          0.972688 0 -0.00492036
0.0281         0.97269 0 -0.00492015
0.0282         0.972692 0 -0.00491986
0.0283         0.972694 0 -0.00491949
0.0284         0.972696 0 -0.00491903
0.0285         0.972698 0 -0.0049185
0.0286         0.9727 0 -0.00491788
0.0287         0.972702 0 -0.00491718
0.0288         0.972704 0 -0.0049164
0.0289         0.972706 0 -0.00491554
0.029          0.972708 0 -0.0049146
0.0291         0.97271 0 -0.00491358
0.0292         0.972712 0 -0.00491247
0.0293         0.972714 0 -0.00491129
0.0294         0.972716 0 -0.00491003
0.0295         0.972718 0 -0.00490868
0.0296         0.97272 0 -0.00490726
0.0297         0.972722 0 -0.00490576
0.0298         0.972724 0 -0.00490418
0.0299         0.972725 0 -0.00490253
0.03           0.972727 0 -0.00490081
0.0301         0.972729 0 -0.004899
0.0302         0.972731 0 -0.00489713
0.0303         0.972733 0 -0.00489519
0.0304         0.972734 0 -0.00489317
0.0305         0.972736 0 -0.00489109
0.0306         0.972738 0 -0.00488894
0.0307         0.97274 0 -0.00488672
0.0308         0.972741 0 -0.00488444
0.0309         0.972743 0 -0.00488209
0.031          0.972744 0 -0.00487969
0.0311         0.972746 0 -0.00487722
0.0312         0.972748 0 -0.0048747
0.0313         0.972749 0 -0.00487212
0.0314         0.97275 0 -0.00486949
0.0315         0.972752 0 -0.00486681
0.0316         0.972753 0 -0.00486408
0.0317         0.972755 0 -0.0048613
0.0318         0.972756 0 -0.00485847
0.0319         0.972757 0 -0.0048556
0.032          0.972758 0 -0.0048527
0.0321         0.972759 0 -0.00484975
0.0322         0.972761 0 -0.00484677
0.0323         0.972762 0 -0.00484375
0.0324         0.972763 0 -0.0048407
0.0325         0.972764 0 -0.00483763
0.0326         0.972765 0 -0.00483452
0.0327         0.972765 0 -0.0048314
0.0328         0.972766 0 -0.00482825
0.0329         0.972767 0 -0.00482508
0.033          0.972768 0 -0.0048219
0.0331         0.972768 0 -0.0048187
0.0332         0.972769 0 -0.0048155
0.0333         0.97277 0 -0.00481228
0.0334         0.97277 0 -0.00480906
0.0335         0.972771 0 -0.00480584
0.0336         0.972771 0 -0.00480261
0.0337         0.972772 0 -0.00479939
0.0338         0.972772 0 -0.00479617
0.0339         0.972772 0 -0.00479296
0.034          0.972772 0 -0.00478975
0.0341         0.972773 0 -0.00478656
0.0342         0.972773 0 -0.00478339
0.0343         0.972773 0 -0.00478023
0.0344         0.972773 0 -0.00477709
0.0345         0.972773 0 -0.00477398
0.0346         0.972773 0 -0.00477088
0.0347         0.972773 0 -0.00476782
0.0348         0.972772 0 -0.00476478
0.0349         0.972772 0 -0.00476178
0.035          0.972772 0 -0.0047588
0.0351         0.972772 0 -0.00475587
0.0352         0.972771 0 -0.00475297
0.0353         0.972771 0 -0.00475011
0.0354         0.972771 0 -0.00474729
0.0355         0.97277 0 -0.00474452
0.0356         0.97277 0 -0.00474179
0.0357         0.972769 0 -0.00473911
0.0358         0.972768 0 -0.00473647
0.0359         0.972768 0 -0.00473389
0.036          0.972767 0 -0.00473136
0.0361         0.972766 0 -0.00472889
0.0362         0.972766 0 -0.00472647
0.0363         0.972765 0 -0.0047241
0.0364         0.972764 0 -0.0047218
0.0365         0.972763 0 -0.00471955
0.0366         0.972762 0 -0.00471736
0.0367         0.972761 0 -0.00471523
0.0368         0.97276 0 -0.00471317
0.0369         0.972759 0 -0.00471117
0.037          0.972758 0 -0.00470923
0.0371         0.972757 0 -0.00470735
0.0372         0.972756 0 -0.00470554
0.0373         0.972755 0 -0.0047038
0.0374         0.972754 0 -0.00470212
0.0375         0.972753 0 -0.00470051
0.0376         0.972752 0 -0.00469896
0.0377         0.972751 0 -0.00469748
0.0378         0.97275 0 -0.00469607
0.0379         0.972748 0 -0.00469472
0.038          0.972747 0 -0.00469344
0.0381         0.972746 0 -0.00469223
0.0382         0.972745 0 -0.00469108
0.0383         0.972743 0 -0.00469
0.0384         0.972742 0 -0.00468898
0.0385         0.972741 0 -0.00468803
0.0386         0.97274 0 -0.00468714
0.0387         0.972738 0 -0.00468631
0.0388         0.972737 0 -0.00468555
0.0389         0.972736 0 -0.00468485
0.039          0.972735 0 -0.00468421
0.0391         0.972733 0 -0.00468362
0.0392         0.972732 0 -0.0046831
0.0393         0.972731 0 -0.00468264
0.0394         0.97273 0 -0.00468223
0.0395         0.972728 0 -0.00468187
0.0396         0.972727 0 -0.00468157
0.0397         0.972726 0 -0.00468133
0.0398         0.972725 0 -0.00468113
0.0399         0.972724 0 -0.00468098
0.04           0.972722 0 -0.00468088
0.0401         0.972721 0 -0.00468083
0.0402         0.97272 0 -0.00468082
0.0403         0.972719 0 -0.00468086
0.0404         0.972718 0 -0.00468094
0.0405         0.972717 0 -0.00468105
0.0406         0.972715 0 -0.00468121
0.0407         0.972714 0 -0.0046814
0.0408         0.972713 0 -0.00468163
0.0409         0.972712 0 -0.00468189
0.041          0.972711 0 -0.00468218
0.0411         0.97271 0 -0.00468249
0.0412         0.972709 0 -0.00468284
0.0413         0.972708 0 -0.00468321
0.0414         0.972707 0 -0.0046836
0.0415         0.972706 0 -0.00468402
0.0416         0.972705 0 -0.00468445
0.0417         0.972704 0 -0.00468491
0.0418         0.972704 0 -0.00468538
0.0419         0.972703 0 -0.00468586
0.042          0.972702 0 -0.00468635
0.0421         0.972701 0 -0.00468686
0.0422         0.9727 0 -0.00468737
0.0423         0.9727 0 -0.00468789
0.0424         0.972699 0 -0.00468842
0.0425         0.972698 0 -0.00468895
0.0426         0.972697 0 -0.00468948
0.0427         0.972697 0 -0.00469001
0.0428         0.972696 0 -0.00469054
0.0429         0.972696 0 -0.00469106
0.043          0.972695 0 -0.00469158
0.0431         0.972694 0 -0.00469209
0.0432         0.972694 0 -0.0046926
0.0433         0.972693 0 -0.0046931
0.0434         0.972693 0 -0.00469358
0.0435         0.972692 0 -0.00469406
0.0436         0.972692 0 -0.00469452
0.0437         0.972692 0 -0.00469496
0.0438         0.972691 0 -0.00469539
0.0439         0.972691 0 -0.00469581
0.044          0.97269 0 -0.0046962
0.0441         0.97269 0 -0.00469658
0.0442         0.97269 0 -0.00469694
0.0443         0.97269 0 -0.00469728
0.0444         0.972689 0 -0.00469759
0.0445         0.972689 0 -0.00469789
0.0446         0.972689 0 -0.00469816
0.0447         0.972689 0 -0.00469841
0.0448         0.972688 0 -0.00469863
0.0449         0.972688 0 -0.00469883
0.045          0.972688 0 -0.00469901
0.0451         0.972688 0 -0.00469916
0.0452         0.972688 0 -0.00469928
0.0453         0.972687 0 -0.00469938
0.0454         0.972687 0 -0.00469946
0.0455         0.972687 0 -0.00469951
0.0456         0.972687 0 -0.00469953
0.0457         0.972687 0 -0.00469952
0.0458         0.972687 0 -0.0046995
0.0459         0.972687 0 -0.00469944
0.046          0.972687 0 -0.00469936
0.0461         0.972687 0 -0.00469926
0.0462         0.972687 0 -0.00469913
0.0463         0.972687 0 -0.00469897
0.0464         0.972687 0 -0.00469879
0.0465         0.972686 0 -0.00469859
0.0466         0.972686 0 -0.00469837
0.0467         0.972686 0 -0.00469812
0.0468         0.972686 0 -0.00469785
0.0469         0.972686 0 -0.00469756
0.047          0.972686 0 -0.00469725
0.0471         0.972686 0 -0.00469692
0.0472         0.972686 0 -0.00469657
0.0473         0.972686 0 -0.0046962
0.0474         0.972686 0 -0.00469582
0.0475         0.972686 0 -0.00469542
0.0476         0.972686 0 -0.004695
0.0477         0.972686 0 -0.00469457
0.0478         0.972686 0 -0.00469412
0.0479         0.972686 0 -0.00469366
0.048          0.972686 0 -0.00469319
0.0481         0.972686 0 -0.00469271
0.0482         0.972686 0 -0.00469222
0.0483         0.972685 0 -0.00469172
0.0484         0.972685 0 -0.00469121
0.0485         0.972685 0 -0.00469069
0.0486         0.972685 0 -0.00469017
0.0487         0.972685 0 -0.00468965
0.0488         0.972685 0 -0.00468912
0.0489         0.972685 0 -0.00468859
0.049          0.972685 0 -0.00468805
0.0491         0.972684 0 -0.00468752
0.0492         0.972684 0 -0.00468699
0.0493         0.972684 0 -0.00468646
0.0494         0.972684 0 -0.00468593
0.0495         0.972684 0 -0.0046854
0.0496         0.972684 0 -0.00468488
0.0497         0.972683 0 -0.00468436
0.0498         0.972683 0 -0.00468385
0.0499         0.972683 0 -0.00468335
0.05           0.972683 0 -0.00468285
0.0501         0.972682 0 -0.00468236
0.0502         0.972682 0 -0.00468188
0.0503         0.972682 0 -0.00468142
0.0504         0.972682 0 -0.00468096
0.0505         0.972681 0 -0.00468052
0.0506         0.972681 0 -0.00468008
0.0507         0.972681 0 -0.00467966
0.0508         0.97268 0 -0.00467926
0.0509         0.97268 0 -0.00467887
0.051          0.97268 0 -0.00467849
0.0511         0.972679 0 -0.00467813
0.0512         0.972679 0 -0.00467778
0.0513         0.972679 0 -0.00467745
0.0514         0.972678 0 -0.00467714
0.0515         0.972678 0 -0.00467684
0.0516         0.972677 0 -0.00467656
0.0517         0.972677 0 -0.0046763
0.0518         0.972677 0 -0.00467606
0.0519         0.972676 0 -0.00467583
0.052          0.972676 0 -0.00467562
0.0521         0.972675 0 -0.00467543
0.0522         0.972675 0 -0.00467526
0.0523         0.972675 0 -0.0046751
0.0524         0.972674 0 -0.00467496
0.0525         0.972674 0 -0.00467484
0.0526         0.972673 0 -0.00467474
0.0527         0.972673 0 -0.00467466
0.0528         0.972672 0 -0.00467459
0.0529         0.972672 0 -0.00467454
0.053          0.972671 0 -0.00467451
0.0531         0.972671 0 -0.0046745
0.0532         0.972671 0 -0.0046745
0.0533         0.97267 0 -0.00467451
0.0534         0.97267 0 -0.00467455
0.0535         0.972669 0 -0.00467459
0.0536         0.972669 0 -0.00467466
0.0537         0.972668 0 -0.00467473
0.0538         0.972668 0 -0.00467482
0.0539         0.972667 0 -0.00467493
0.054          0.972667 0 -0.00467505
0.0541         0.972666 0 -0.00467518
0.0542         0.972666 0 -0.00467532
0.0543         0.972666 0 -0.00467547
0.0544         0.972665 0 -0.00467563
0.0545         0.972665 0 -0.0046758
0.0546         0.972664 0 -0.00467599
0.0547         0.972664 0 -0.00467618
0.0548         0.972663 0 -0.00467637
0.0549         0.972663 0 -0.00467658
0.055          0.972662 0 -0.00467679
0.0551         0.972662 0 -0.00467701
0.0552         0.972662 0 -0.00467723
0.0553         0.972661 0 -0.00467746
0.0554         0.972661 0 -0.00467769
0.0555         0.97266 0 -0.00467793
0.0556         0.97266 0 -0.00467817
0.0557         0.97266 0 -0.00467841
0.0558         0.972659 0 -0.00467865
0.0559         0.972659 0 -0.00467889
0.056          0.972658 0 -0.00467913
0.0561         0.972658 0 -0.00467937
0.0562         0.972658 0 -0.00467961
0.0563         0.972657 0 -0.00467985
0.0564         0.972657 0 -0.00468009
0.0565         0.972657 0 -0.00468032
0.0566         0.972656 0 -0.00468055
0.0567         0.972656 0 -0.00468078
0.0568         0.972656 0 -0.004681
0.0569         0.972655 0 -0.00468121
0.057          0.972655 0 -0.00468142
0.0571         0.972655 0 -0.00468163
0.0572         0.972654 0 -0.00468183
0.0573         0.972654 0 -0.00468202
0.0574         0.972654 0 -0.0046822
0.0575         0.972653 0 -0.00468238
0.0576         0.972653 0 -0.00468255
0.0577         0.972653 0 -0.00468271
0.0578         0.972652 0 -0.00468286
0.0579         0.972652 0 -0.004683
0.058          0.972652 0 -0.00468314
0.0581         0.972652 0 -0.00468326
0.0582         0.972651 0 -0.00468338
0.0583         0.972651 0 -0.00468349
0.0584         0.972651 0 -0.00468359
0.0585         0.972651 0 -0.00468367
0.0586         0.97265 0 -0.00468375
0.0587         0.97265 0 -0.00468382
0.0588         0.97265 0 -0.00468388
0.0589         0.97265 0 -0.00468393
0.059          0.972649 0 -0.00468397
0.0591         0.972649 0 -0.004684
0.0592         0.972649 0 -0.00468403
0.0593         0.972649 0 -0.00468404
0.0594         0.972648 0 -0.00468404
0.0595         0.972648 0 -0.00468404
0.0596         0.972648 0 -0.00468402
0.0597         0.972648 0 -0.004684
0.0598         0.972647 0 -0.00468397
0.0599         0.972647 0 -0.00468393
0.06           0.972647 0 -0.00468389
0.0601         0.972647 0 -0.00468384
0.0602         0.972646 0 -0.00468378
0.0603         0.972646 0 -0.00468371
0.0604         0.972646 0 -0.00468364
0.0605         0.972646 0 -0.00468356
0.0606         0.972646 0 -0.00468347
0.0607         0.972645 0 -0.00468338
0.0608         0.972645 0 -0.00468329
0.0609         0.972645 0 -0.00468319
0.061          0.972645 0 -0.00468309
0.0611         0.972644 0 -0.00468298
0.0612         0.972644 0 -0.00468287
0.0613         0.972644 0 -0.00468276
0.0614         0.972643 0 -0.00468265
0.0615         0.972643 0 -0.00468253
0.0616         0.972643 0 -0.00468242
0.0617         0.972643 0 -0.0046823
0.0618         0.972642 0 -0.00468218
0.0619         0.972642 0 -0.00468206
0.062          0.972642 0 -0.00468195
0.0621         0.972642 0 -0.00468183
0.0622         0.972641 0 -0.00468172
0.0623         0.972641 0 -0.0046816
0.0624         0.972641 0 -0.00468149
0.0625         0.97264 0 -0.00468138
0.0626         0.97264 0 -0.00468128
0.0627         0.97264 0 -0.00468118
0.0628         0.972639 0 -0.00468108
0.0629         0.972639 0 -0.00468099
0.063          0.972639 0 -0.0046809
0.0631         0.972638 0 -0.00468082
0.0632         0.972638 0 -0.00468074
0.0633         0.972638 0 -0.00468067
0.0634         0.972637 0 -0.0046806
0.0635         0.972637 0 -0.00468054
0.0636         0.972637 0 -0.00468049
0.0637         0.972636 0 -0.00468044
0.0638         0.972636 0 -0.0046804
0.0639         0.972635 0 -0.00468037
0.064          0.972635 0 -0.00468034
0.0641         0.972635 0 -0.00468033
0.0642         0.972634 0 -0.00468032
0.0643         0.972634 0 -0.00468032
0.0644         0.972634 0 -0.00468032
0.0645         0.972633 0 -0.00468034
0.0646         0.972633 0 -0.00468036
0.0647         0.972632 0 -0.00468039
0.0648         0.972632 0 -0.00468043
0.0649         0.972632 0 -0.00468048
0.065          0.972631 0 -0.00468054
0.0651         0.972631 0 -0.00468061
0.0652         0.97263 0 -0.00468068
0.0653         0.97263 0 -0.00468077
0.0654         0.972629 0 -0.00468086
0.0655         0.972629 0 -0.00468096
0.0656         0.972628 0 -0.00468107
0.0657         0.972628 0 -0.00468119
0.0658         0.972628 0 -0.00468131
0.0659         0.972627 0 -0.00468144
0.066          0.972627 0 -0.00468159
0.0661         0.972626 0 -0.00468173
0.0662         0.972626 0 -0.00468189
0.0663         0.972625 0 -0.00468205
0.0664         0.972625 0 -0.00468223
0.0665         0.972624 0 -0.0046824
0.0666         0.972624 0 -0.00468259
0.0667         0.972623 0 -0.00468278
0.0668         0.972623 0 -0.00468298
0.0669         0.972623 0 -0.00468318
0.067          0.972622 0 -0.00468339
0.0671         0.972622 0 -0.0046836
0.0672         0.972621 0 -0.00468382
0.0673         0.972621 0 -0.00468405
0.0674         0.97262 0 -0.00468428
0.0675         0.97262 0 -0.00468451
0.0676         0.972619 0 -0.00468475
0.0677         0.972619 0 -0.00468499
0.0678         0.972618 0 -0.00468523
0.0679         0.972618 0 -0.00468548
0.068          0.972617 0 -0.00468573
0.0681         0.972617 0 -0.00468598
0.0682         0.972616 0 -0.00468624
0.0683         0.972616 0 -0.00468649
0.0684         0.972615 0 -0.00468675
0.0685         0.972615 0 -0.00468701
0.0686         0.972614 0 -0.00468727
0.0687         0.972614 0 -0.00468754
0.0688         0.972613 0 -0.0046878
0.0689         0.972613 0 -0.00468806
0.069          0.972612 0 -0.00468832
0.0691         0.972612 0 -0.00468858
0.0692         0.972611 0 -0.00468885
0.0693         0.972611 0 -0.00468911
0.0694         0.97261 0 -0.00468937
0.0695         0.97261 0 -0.00468962
0.0696         0.972609 0 -0.00468988
0.0697         0.972609 0 -0.00469014
0.0698         0.972608 0 -0.00469039
0.0699         0.972608 0 -0.00469064
0.07           0.972607 0 -0.00469089
0.0701         0.972607 0 -0.00469114
0.0702         0.972606 0 -0.00469138
0.0703         0.972606 0 -0.00469163
0.0704         0.972605 0 -0.00469187
0.0705         0.972605 0 -0.0046921
0.0706         0.972604 0 -0.00469234
0.0707         0.972604 0 -0.00469257
0.0708         0.972603 0 -0.00469279
0.0709         0.972603 0 -0.00469302
0.071          0.972602 0 -0.00469324
0.0711         0.972602 0 -0.00469346
0.0712         0.972601 0 -0.00469367
0.0713         0.972601 0 -0.00469389
0.0714         0.9726 0 -0.0046941
0.0715         0.9726 0 -0.0046943
0.0716         0.972599 0 -0.0046945
0.0717         0.972599 0 -0.0046947
0.0718         0.972598 0 -0.0046949
0.0719         0.972598 0 -0.0046951
0.072          0.972597 0 -0.00469529
0.0721         0.972597 0 -0.00469548
0.0722         0.972596 0 -0.00469566
0.0723         0.972596 0 -0.00469585
0.0724         0.972595 0 -0.00469603
0.0725         0.972595 0 -0.00469621
0.0726         0.972594 0 -0.00469639
0.0727         0.972593 0 -0.00469656
0.0728         0.972593 0 -0.00469674
0.0729         0.972592 0 -0.00469691
0.073          0.972592 0 -0.00469708
0.0731         0.972591 0 -0.00469725
0.0732         0.972591 0 -0.00469742
0.0733         0.97259 0 -0.00469759
0.0734         0.972589 0 -0.00469776
0.0735         0.972589 0 -0.00469792
0.0736         0.972588 0 -0.00469809
0.0737         0.972588 0 -0.00469826
0.0738         0.972587 0 -0.00469843
0.0739         0.972586 0 -0.0046986
0.074          0.972586 0 -0.00469877
0.0741         0.972585 0 -0.00469894
0.0742         0.972585 0 -0.00469911
0.0743         0.972584 0 -0.00469929
0.0744         0.972583 0 -0.00469946
0.0745         0.972583 0 -0.00469964
0.0746         0.972582 0 -0.00469982
0.0747         0.972581 0 -0.0047
0.0748         0.972581 0 -0.00470019
0.0749         0.97258 0 -0.00470037
0.075          0.972579 0 -0.00470056
0.0751         0.972579 0 -0.00470076
0.0752         0.972578 0 -0.00470096
0.0753         0.972577 0 -0.00470116
0.0754         0.972577 0 -0.00470136
0.0755         0.972576 0 -0.00470157
0.0756         0.972575 0 -0.00470179
0.0757         0.972575 0 -0.004702
0.0758         0.972574 0 -0.00470223
0.0759         0.972573 0 -0.00470245
0.076          0.972572 0 -0.00470268
0.0761         0.972572 0 -0.00470292
0.0762         0.972571 0 -0.00470316
0.0763         0.97257 0 -0.00470341
0.0764         0.972569 0 -0.00470366
0.0765         0.972569 0 -0.00470392
0.0766         0.972568 0 -0.00470419
0.0767         0.972567 0 -0.00470446
0.0768         0.972566 0 -0.00470473
0.0769         0.972565 0 -0.00470502
0.077          0.972565 0 -0.0047053
0.0771         0.972564 0 -0.0047056
0.0772         0.972563 0 -0.0047059
0.0773         0.972562 0 -0.0047062
0.0774         0.972561 0 -0.00470652
0.0775         0.972561 0 -0.00470683
0.0776         0.97256 0 -0.00470716
0.0777         0.972559 0 -0.00470749
0.0778         0.972558 0 -0.00470783
0.0779         0.972557 0 -0.00470817
0.078          0.972556 0 -0.00470852
0.0781         0.972555 0 -0.00470888
0.0782         0.972555 0 -0.00470924
0.0783         0.972554 0 -0.00470961
0.0784         0.972553 0 -0.00470998
0.0785         0.972552 0 -0.00471036
0.0786         0.972551 0 -0.00471075
0.0787         0.97255 0 -0.00471114
0.0788         0.972549 0 -0.00471154
0.0789         0.972548 0 -0.00471194
0.079          0.972547 0 -0.00471235
0.0791         0.972546 0 -0.00471277
0.0792         0.972545 0 -0.00471319
0.0793         0.972544 0 -0.00471362