# Probe 0 (0.5 0.5 0.05)
# Time        0            
99.9895       (0.973847 1.44607e-05 0)
99.9905       (0.973847 1.44632e-05 0)
99.9915       (0.973847 1.4466e-05 0)
99.9925       (0.973847 1.44686e-05 0)
99.9935       (0.973847 1.4471e-05 0)
99.9945       (0.973847 1.44731e-05 0)
99.9955       (0.973847 1.44749e-05 0)
99.9965       (0.973847 1.44763e-05 0)
99.9975       (0.973847 1.44775e-05 0)
99.9985       (0.973847 1.44785e-05 0)
99.9995       (0.973847 1.44792e-05 0)
100.001       (0.973847 1.44798e-05 0)
100.002       (0.973847 1.44803e-05 0)
100.003       (0.973847 1.44807e-05 0)
100.004       (0.973847 1.44809e-05 0)
100.005       (0.973847 1.44811e-05 0)
100.006       (0.973847 1.44813e-05 0)
100.007       (0.973847 1.44814e-05 0)
100.008       (0.973847 1.44815e-05 0)
100.009       (0.973847 1.44816e-05 0)
100.01        (0.973847 1.44816e-05 0)
100.011       (0.973847 1.44817e-05 0)
100.012       (0.973847 1.44817e-05 0)
100.013       (0.973847 1.44817e-05 0)
100.014       (0.973847 1.44817e-05 0)
100.015       (0.973847 1.44817e-05 0)
100.016       (0.973847 1.44817e-05 0)
100.017       (0.973847 1.44816e-05 0)
100.018       (0.973847 1.44816e-05 0)
100.019       (0.973847 1.44816e-05 0)
100.02        (0.973847 1.44816e-05 0)
100.021       (0.973847 1.44815e-05 0)
100.022       (0.973847 1.44815e-05 0)
100.023       (0.973847 1.44814e-05 0)
100.024       (0.973847 1.44813e-05 0)
100.025       (0.973847 1.44813e-05 0)
100.026       (0.973847 1.44812e-05 0)
100.027       (0.973847 1.44812e-05 0)
100.028       (0.973847 1.44811e-05 0)
100.029       (0.973847 1.4481e-05 0)
100.03        (0.973847 1.4481e-05 0)
100.031       (0.973847 1.44809e-05 0)
100.032       (0.973847 1.44808e-05 0)
100.033       (0.973847 1.44808e-05 0)
100.034       (0.973847 1.44807e-05 0)
100.035       (0.973847 1.44806e-05 0)
100.036       (0.973847 1.44806e-05 0)
100.037       (0.973847 1.44805e-05 0)
100.038       (0.973847 1.44804e-05 0)
100.039       (0.973847 1.44804e-05 0)
100.04        (0.973847 1.44803e-05 0)
100.041       (0.973847 1.44802e-05 0)
100.042       (0.973847 1.44802e-05 0)
100.043       (0.973847 1.44801e-05 0)
100.044       (0.973847 1.44801e-05 0)
100.045       (0.973847 1.448e-05 0)
100.046       (0.973847 1.448e-05 0)
100.047       (0.973847 1.44799e-05 0)
100.048       (0.973847 1.44799e-05 0)
100.049       (0.973847 1.44798e-05 0)
100.05        (0.973847 1.44798e-05 0)
100.051       (0.973847 1.44797e-05 0)
100.052       (0.973847 1.44797e-05 0)
100.053       (0.973847 1.44796e-05 0)
100.054       (0.973847 1.44796e-05 0)
100.055       (0.973847 1.44796e-05 0)
100.056       (0.973847 1.44796e-05 0)
100.057       (0.973847 1.44795e-05 0)
100.058       (0.973847 1.44795e-05 0)
100.059       (0.973847 1.44795e-05 0)
100.06        (0.973847 1.44795e-05 0)
100.061       (0.973847 1.44794e-05 0)
100.062       (0.973847 1.44794e-05 0)
100.063       (0.973847 1.44794e-05 0)
100.064       (0.973847 1.44794e-05 0)
100.065       (0.973847 1.44794e-05 0)
100.066       (0.973847 1.44794e-05 0)
100.067       (0.973847 1.44793e-05 0)
100.068       (0.973847 1.44794e-05 0)
100.069       (0.973847 1.44794e-05 0)
100.07        (0.973847 1.44794e-05 0)
100.071       (0.973847 1.44793e-05 0)
100.072       (0.973847 1.44794e-05 0)
100.073       (0.973847 1.44794e-05 0)
100.074       (0.973847 1.44794e-05 0)
100.075       (0.973847 1.44794e-05 0)
100.076       (0.973847 1.44794e-05 0)
100.077       (0.973847 1.44794e-05 0)
100.078       (0.973847 1.44794e-05 0)
100.079       (0.973847 1.44794e-05 0)
100.08        (0.973847 1.44794e-05 0)
100.081       (0.973847 1.44794e-05 0)
100.082       (0.973847 1.44794e-05 0)
100.083       (0.973847 1.44794e-05 0)
100.084       (0.973847 1.44794e-05 0)
100.085       (0.973848 1.44794e-05 0)
100.086       (0.973848 1.44794e-05 0)
100.087       (0.973848 1.44795e-05 0)
100.088       (0.973848 1.44794e-05 0)
100.089       (0.973848 1.44795e-05 0)
100.09        (0.973848 1.44795e-05 0)
100.091       (0.973848 1.44795e-05 0)
100.092       (0.973848 1.44795e-05 0)
100.093       (0.973848 1.44795e-05 0)
100.094       (0.973848 1.44795e-05 0)
100.095       (0.973848 1.44795e-05 0)
100.096       (0.973848 1.44795e-05 0)
100.097       (0.973848 1.44795e-05 0)
100.098       (0.973848 1.44796e-05 0)
100.099       (0.973848 1.44796e-05 0)
100.1         (0.973848 1.44796e-05 0)
100.101       (0.973848 1.44796e-05 0)
100.102       (0.973848 1.44796e-05 0)
100.103       (0.973848 1.44796e-05 0)
100.104       (0.973848 1.44796e-05 0)
100.105       (0.973848 1.44796e-05 0)
100.106       (0.973848 1.44796e-05 0)
100.107       (0.973848 1.44796e-05 0)
100.108       (0.973848 1.44797e-05 0)
100.109       (0.973848 1.44796e-05 0)
100.11        (0.973848 1.44796e-05 0)
100.111       (0.973848 1.44797e-05 0)
100.112       (0.973848 1.44797e-05 0)
100.113       (0.973848 1.44797e-05 0)
100.114       (0.973848 1.44797e-05 0)
100.115       (0.973848 1.44797e-05 0)
100.116       (0.973848 1.44797e-05 0)
100.117       (0.973848 1.44797e-05 0)
100.118       (0.973848 1.44797e-05 0)
100.119       (0.973848 1.44797e-05 0)
100.12        (0.973848 1.44797e-05 0)
100.121       (0.973848 1.44797e-05 0)
100.122       (0.973848 1.44797e-05 0)
100.123       (0.973848 1.44797e-05 0)
100.124       (0.973848 1.44797e-05 0)
100.125       (0.973848 1.44797e-05 0)
100.126       (0.973848 1.44797e-05 0)
100.127       (0.973848 1.44797e-05 0)
100.128       (0.973848 1.44798e-05 0)
100.129       (0.973848 1.44798e-05 0)
100.13        (0.973848 1.44798e-05 0)
100.131       (0.973848 1.44797e-05 0)
100.132       (0.973848 1.44798e-05 0)
100.133       (0.973848 1.44798e-05 0)
100.134       (0.973848 1.44798e-05 0)
100.135       (0.973848 1.44798e-05 0)
100.136       (0.973848 1.44798e-05 0)
100.137       (0.973848 1.44798e-05 0)
100.138       (0.973848 1.44798e-05 0)
100.139       (0.973848 1.44798e-05 0)
100.14        (0.973848 1.44798e-05 0)
100.141       (0.973848 1.44798e-05 0)
100.142       (0.973848 1.44798e-05 0)
100.143       (0.973848 1.44798e-05 0)
100.144       (0.973848 1.44798e-05 0)
100.145       (0.973848 1.44798e-05 0)
100.146       (0.973848 1.44798e-05 0)
100.147       (0.973848 1.44798e-05 0)
100.148       (0.973848 1.44798e-05 0)
100.149       (0.973848 1.44798e-05 0)
100.15        (0.973848 1.44798e-05 0)
100.151       (0.973848 1.44798e-05 0)
100.152       (0.973848 1.44798e-05 0)
100.153       (0.973848 1.44798e-05 0)
100.154       (0.973848 1.44798e-05 0)
100.155       (0.973848 1.44798e-05 0)
100.156       (0.973848 1.44798e-05 0)
100.157       (0.973848 1.44798e-05 0)
100.158       (0.973848 1.44798e-05 0)
100.159       (0.973848 1.44798e-05 0)
100.16        (0.973848 1.44798e-05 0)
100.161       (0.973848 1.44798e-05 0)
100.162       (0.973848 1.44797e-05 0)
100.163       (0.973848 1.44797e-05 0)
100.164       (0.973848 1.44798e-05 0)
100.165       (0.973848 1.44797e-05 0)
100.166       (0.973848 1.44797e-05 0)
100.167       (0.973848 1.44797e-05 0)
100.168       (0.973848 1.44797e-05 0)
100.169       (0.973848 1.44797e-05 0)
100.17        (0.973848 1.44797e-05 0)
100.171       (0.973848 1.44797e-05 0)
100.172       (0.973848 1.44797e-05 0)
100.173       (0.973848 1.44797e-05 0)
100.174       (0.973848 1.44797e-05 0)
100.175       (0.973848 1.44797e-05 0)
100.176       (0.973848 1.44797e-05 0)
100.177       (0.973848 1.44797e-05 0)
100.178       (0.973848 1.44797e-05 0)
100.179       (0.973848 1.44797e-05 0)
100.18        (0.973848 1.44797e-05 0)
100.181       (0.973848 1.44797e-05 0)
100.182       (0.973848 1.44797e-05 0)
100.183       (0.973848 1.44797e-05 0)
100.184       (0.973848 1.44797e-05 0)
100.185       (0.973848 1.44796e-05 0)
100.186       (0.973848 1.44797e-05 0)
100.187       (0.973848 1.44797e-05 0)
100.188       (0.973848 1.44797e-05 0)
100.189       (0.973848 1.44797e-05 0)
100.19        (0.973848 1.44797e-05 0)
100.191       (0.973848 1.44796e-05 0)
100.192       (0.973848 1.44796e-05 0)
100.193       (0.973848 1.44796e-05 0)
100.194       (0.973848 1.44796e-05 0)
100.195       (0.973848 1.44796e-05 0)
100.196       (0.973848 1.44796e-05 0)
100.197       (0.973848 1.44796e-05 0)
100.198       (0.973848 1.44796e-05 0)
100.199       (0.973848 1.44796e-05 0)
100.2         (0.973848 1.44796e-05 0)
100.201       (0.973848 1.44796e-05 0)
100.202       (0.973848 1.44796e-05 0)
100.203       (0.973848 1.44796e-05 0)
100.204       (0.973848 1.44796e-05 0)
100.205       (0.973848 1.44796e-05 0)
100.206       (0.973848 1.44796e-05 0)
100.207       (0.973848 1.44796e-05 0)
100.208       (0.973848 1.44796e-05 0)
100.209       (0.973848 1.44796e-05 0)
100.21        (0.973848 1.44796e-05 0)
100.211       (0.973848 1.44796e-05 0)
100.212       (0.973848 1.44796e-05 0)
100.213       (0.973848 1.44796e-05 0)
100.214       (0.973848 1.44796e-05 0)
100.215       (0.973848 1.44796e-05 0)
100.216       (0.973848 1.44796e-05 0)
100.217       (0.973848 1.44796e-05 0)
100.218       (0.973848 1.44796e-05 0)
100.219       (0.973848 1.44796e-05 0)
100.22        (0.973848 1.44796e-05 0)
100.221       (0.973848 1.44796e-05 0)
100.222       (0.973848 1.44796e-05 0)
100.223       (0.973848 1.44796e-05 0)
100.224       (0.973848 1.44796e-05 0)
100.225       (0.973848 1.44796e-05 0)
100.226       (0.973848 1.44796e-05 0)
100.227       (0.973848 1.44796e-05 0)
100.228       (0.973848 1.44796e-05 0)
100.229       (0.973848 1.44796e-05 0)
100.23        (0.973848 1.44796e-05 0)
100.231       (0.973848 1.44796e-05 0)
100.232       (0.973848 1.44796e-05 0)
100.233       (0.973848 1.44796e-05 0)
100.234       (0.973848 1.44796e-05 0)
100.235       (0.973848 1.44796e-05 0)
100.236       (0.973848 1.44796e-05 0)
100.237       (0.973848 1.44796e-05 0)
100.238       (0.973848 1.44796e-05 0)
100.239       (0.973848 1.44796e-05 0)
100.24        (0.973848 1.44797e-05 0)
100.241       (0.973848 1.44797e-05 0)
100.242       (0.973848 1.44797e-05 0)
100.243       (0.973848 1.44797e-05 0)
100.244       (0.973848 1.44797e-05 0)
100.245       (0.973848 1.44797e-05 0)
100.246       (0.973848 1.44797e-05 0)
100.247       (0.973848 1.44797e-05 0)
100.248       (0.973848 1.44797e-05 0)
100.249       (0.973848 1.44797e-05 0)
100.25        (0.973848 1.44797e-05 0)
100.251       (0.973848 1.44797e-05 0)
100.252       (0.973848 1.44797e-05 0)
100.253       (0.973848 1.44797e-05 0)
100.254       (0.973848 1.44797e-05 0)
100.255       (0.973849 1.44797e-05 0)
100.256       (0.973849 1.44797e-05 0)
100.257       (0.973849 1.44797e-05 0)
100.258       (0.973849 1.44797e-05 0)
100.259       (0.973849 1.44797e-05 0)
100.26        (0.973849 1.44798e-05 0)
100.261       (0.973849 1.44798e-05 0)
100.262       (0.973849 1.44798e-05 0)
100.263       (0.973849 1.44798e-05 0)
100.264       (0.973849 1.44798e-05 0)
100.265       (0.973849 1.44798e-05 0)
100.266       (0.973849 1.44798e-05 0)
100.267       (0.973849 1.44798e-05 0)
100.268       (0.973849 1.44798e-05 0)
100.269       (0.973849 1.44798e-05 0)
100.27        (0.973849 1.44798e-05 0)
100.271       (0.973849 1.44798e-05 0)
100.272       (0.973849 1.44798e-05 0)
100.273       (0.973849 1.44798e-05 0)
100.274       (0.973849 1.44798e-05 0)
100.275       (0.973849 1.44798e-05 0)
100.276       (0.973849 1.44798e-05 0)
100.277       (0.973849 1.44798e-05 0)
100.278       (0.973849 1.44799e-05 0)
100.279       (0.973849 1.44798e-05 0)
100.28        (0.973849 1.44798e-05 0)
100.281       (0.973849 1.44799e-05 0)
100.282       (0.973849 1.44799e-05 0)
100.283       (0.973849 1.44799e-05 0)
100.284       (0.973849 1.44799e-05 0)
100.285       (0.973849 1.44799e-05 0)
100.286       (0.973849 1.44799e-05 0)
100.287       (0.973849 1.44799e-05 0)
100.288       (0.973849 1.44799e-05 0)
100.289       (0.973849 1.44799e-05 0)
100.29        (0.973849 1.44799e-05 0)
100.291       (0.973849 1.44799e-05 0)
100.292       (0.973849 1.44799e-05 0)
100.293       (0.973849 1.44799e-05 0)
100.294       (0.973849 1.44799e-05 0)
100.295       (0.973849 1.44799e-05 0)
100.296       (0.973849 1.44799e-05 0)
100.297       (0.973849 1.44799e-05 0)
100.298       (0.973849 1.44799e-05 0)
100.299       (0.973849 1.44799e-05 0)
100.3         (0.973849 1.44799e-05 0)
100.301       (0.973849 1.44799e-05 0)
100.302       (0.973849 1.44799e-05 0)
100.303       (0.973849 1.44799e-05 0)
100.304       (0.973849 1.44799e-05 0)
100.305       (0.973849 1.44799e-05 0)
100.306       (0.973849 1.44799e-05 0)
100.307       (0.973849 1.44799e-05 0)
100.308       (0.973849 1.448e-05 0)
100.309       (0.973849 1.448e-05 0)
100.31        (0.973849 1.448e-05 0)
100.311       (0.973849 1.448e-05 0)
100.312       (0.973849 1.448e-05 0)
100.313       (0.973849 1.448e-05 0)
100.314       (0.973849 1.448e-05 0)
100.315       (0.973849 1.448e-05 0)
100.316       (0.973849 1.448e-05 0)
100.317       (0.973849 1.448e-05 0)
100.318       (0.973849 1.448e-05 0)
100.319       (0.973849 1.448e-05 0)
100.32        (0.973849 1.448e-05 0)
100.321       (0.973849 1.448e-05 0)
100.322       (0.973849 1.448e-05 0)
100.323       (0.973849 1.448e-05 0)
100.324       (0.973849 1.448e-05 0)
100.325       (0.973849 1.448e-05 0)
100.326       (0.973849 1.448e-05 0)
100.327       (0.973849 1.448e-05 0)
100.328       (0.973849 1.448e-05 0)
100.329       (0.973849 1.448e-05 0)
100.33        (0.973849 1.448e-05 0)
100.331       (0.973849 1.448e-05 0)
100.332       (0.973849 1.448e-05 0)
100.333       (0.973849 1.448e-05 0)
100.334       (0.973849 1.448e-05 0)
100.335       (0.973849 1.448e-05 0)
100.336       (0.973849 1.448e-05 0)
100.337       (0.973849 1.448e-05 0)
100.338       (0.973849 1.448e-05 0)
100.339       (0.973849 1.448e-05 0)
100.34        (0.973849 1.448e-05 0)
100.341       (0.973849 1.448e-05 0)
100.342       (0.973849 1.448e-05 0)
100.343       (0.973849 1.448e-05 0)
100.344       (0.973849 1.448e-05 0)
100.345       (0.973849 1.448e-05 0)
100.346       (0.973849 1.448e-05 0)
100.347       (0.973849 1.448e-05 0)
100.348       (0.973849 1.448e-05 0)
100.349       (0.973849 1.448e-05 0)
100.35        (0.973849 1.448e-05 0)
100.351       (0.973849 1.448e-05 0)
100.352       (0.973849 1.448e-05 0)
100.353       (0.973849 1.448e-05 0)
100.354       (0.973849 1.448e-05 0)
100.355       (0.973849 1.448e-05 0)
100.356       (0.973849 1.448e-05 0)
100.357       (0.973849 1.44801e-05 0)
100.358       (0.973849 1.44801e-05 0)
100.359       (0.973849 1.44801e-05 0)
100.36        (0.973849 1.44801e-05 0)
100.361       (0.973849 1.44801e-05 0)
100.362       (0.973849 1.44801e-05 0)
100.363       (0.973849 1.44801e-05 0)
100.364       (0.973849 1.44801e-05 0)
100.365       (0.973849 1.44801e-05 0)
100.366       (0.973849 1.44801e-05 0)
100.367       (0.973849 1.44801e-05 0)
100.368       (0.973849 1.44801e-05 0)
100.369       (0.973849 1.44801e-05 0)
100.37        (0.973849 1.44801e-05 0)
100.371       (0.973849 1.44801e-05 0)
100.372       (0.973849 1.44801e-05 0)
100.373       (0.973849 1.44801e-05 0)
100.374       (0.973849 1.44801e-05 0)
100.375       (0.973849 1.44801e-05 0)
100.376       (0.973849 1.44801e-05 0)
100.377       (0.973849 1.44801e-05 0)
100.378       (0.973849 1.44801e-05 0)
100.379       (0.973849 1.44801e-05 0)
100.38        (0.973849 1.44801e-05 0)
100.381       (0.973849 1.44801e-05 0)
100.382       (0.973849 1.44801e-05 0)
100.383       (0.973849 1.44801e-05 0)
100.384       (0.973849 1.44801e-05 0)
100.385       (0.973849 1.44801e-05 0)
100.386       (0.973849 1.44801e-05 0)
100.387       (0.973849 1.44801e-05 0)
100.388       (0.973849 1.44801e-05 0)
100.389       (0.973849 1.44801e-05 0)
100.39        (0.973849 1.44801e-05 0)
100.391       (0.973849 1.44801e-05 0)
100.392       (0.973849 1.44801e-05 0)
100.393       (0.973849 1.44801e-05 0)
100.394       (0.973849 1.44801e-05 0)
100.395       (0.973849 1.44801e-05 0)
100.396       (0.973849 1.44801e-05 0)
100.397       (0.973849 1.44801e-05 0)
100.398       (0.973849 1.44802e-05 0)
100.399       (0.973849 1.44802e-05 0)
100.4         (0.973849 1.44802e-05 0)
100.401       (0.973849 1.44801e-05 0)
100.402       (0.973849 1.44802e-05 0)
100.403       (0.973849 1.44802e-05 0)
100.404       (0.973849 1.44802e-05 0)
100.405       (0.973849 1.44802e-05 0)
100.406       (0.973849 1.44802e-05 0)
100.407       (0.973849 1.44802e-05 0)
100.408       (0.973849 1.44802e-05 0)
100.409       (0.973849 1.44802e-05 0)
100.41        (0.973849 1.44802e-05 0)
100.411       (0.973849 1.44802e-05 0)
100.412       (0.973849 1.44802e-05 0)
100.413       (0.973849 1.44802e-05 0)
100.414       (0.973849 1.44802e-05 0)
100.415       (0.973849 1.44802e-05 0)
100.416       (0.973849 1.44802e-05 0)
100.417       (0.973849 1.44802e-05 0)
100.418       (0.973849 1.44802e-05 0)
100.419       (0.973849 1.44802e-05 0)
100.42        (0.973849 1.44802e-05 0)
100.421       (0.973849 1.44802e-05 0)
100.422       (0.973849 1.44802e-05 0)
100.423       (0.973849 1.44802e-05 0)
100.424       (0.973849 1.44802e-05 0)
100.425       (0.973849 1.44802e-05 0)
100.426       (0.973849 1.44802e-05 0)
100.427       (0.973849 1.44802e-05 0)
100.428       (0.973849 1.44802e-05 0)
100.429       (0.973849 1.44802e-05 0)
100.43        (0.973849 1.44802e-05 0)
100.431       (0.973849 1.44802e-05 0)
100.432       (0.973849 1.44802e-05 0)
100.433       (0.973849 1.44802e-05 0)
100.434       (0.973849 1.44802e-05 0)
100.435       (0.973849 1.44802e-05 0)
100.436       (0.973849 1.44802e-05 0)
100.437       (0.973849 1.44802e-05 0)
100.438       (0.973849 1.44802e-05 0)
100.439       (0.973849 1.44802e-05 0)
100.44        (0.973849 1.44802e-05 0)
100.441       (0.973849 1.44802e-05 0)
100.442       (0.973849 1.44803e-05 0)
100.443       (0.973849 1.44803e-05 0)
100.444       (0.973849 1.44803e-05 0)
100.445       (0.973849 1.44803e-05 0)
100.446       (0.973849 1.44803e-05 0)
100.447       (0.973849 1.44803e-05 0)
100.448       (0.973849 1.44803e-05 0)
100.449       (0.973849 1.44803e-05 0)
100.45        (0.973849 1.44803e-05 0)
100.451       (0.973849 1.44803e-05 0)
100.452       (0.973849 1.44803e-05 0)
100.453       (0.973849 1.44803e-05 0)
100.454       (0.973849 1.44803e-05 0)
100.455       (0.973849 1.44803e-05 0)
100.456       (0.973849 1.44803e-05 0)
100.457       (0.973849 1.44803e-05 0)
100.458       (0.973849 1.44803e-05 0)
100.459       (0.973849 1.44803e-05 0)
100.46        (0.973849 1.44803e-05 0)
100.461       (0.973849 1.44803e-05 0)
100.462       (0.973849 1.44803e-05 0)
100.463       (0.973849 1.44803e-05 0)
100.464       (0.97385 1.44803e-05 0)
100.465       (0.97385 1.44803e-05 0)
100.466       (0.97385 1.44803e-05 0)
100.467       (0.97385 1.44803e-05 0)
100.468       (0.97385 1.44803e-05 0)
100.469       (0.97385 1.44803e-05 0)
100.47        (0.97385 1.44803e-05 0)
100.471       (0.97385 1.44803e-05 0)
100.472       (0.97385 1.44803e-05 0)
100.473       (0.97385 1.44803e-05 0)
100.474       (0.97385 1.44803e-05 0)
100.475       (0.97385 1.44803e-05 0)
100.476       (0.97385 1.44803e-05 0)
100.477       (0.97385 1.44803e-05 0)
100.478       (0.97385 1.44803e-05 0)
100.479       (0.97385 1.44803e-05 0)
100.48        (0.97385 1.44803e-05 0)
100.481       (0.97385 1.44803e-05 0)
100.482       (0.97385 1.44803e-05 0)
100.483       (0.97385 1.44803e-05 0)
100.484       (0.97385 1.44803e-05 0)
100.485       (0.97385 1.44803e-05 0)
100.486       (0.97385 1.44804e-05 0)
100.487       (0.97385 1.44804e-05 0)
100.488       (0.97385 1.44804e-05 0)
100.489       (0.97385 1.44804e-05 0)
100.49        (0.97385 1.44804e-05 0)
100.491       (0.97385 1.44804e-05 0)
100.492       (0.97385 1.44804e-05 0)
100.493       (0.97385 1.44804e-05 0)
100.494       (0.97385 1.44804e-05 0)
100.495       (0.97385 1.44804e-05 0)
100.496       (0.97385 1.44804e-05 0)
100.497       (0.97385 1.44804e-05 0)
100.498       (0.97385 1.44804e-05 0)
100.499       (0.97385 1.44804e-05 0)
100.5         (0.97385 1.44804e-05 0)
100.501       (0.97385 1.44804e-05 0)
100.502       (0.97385 1.44804e-05 0)
100.503       (0.97385 1.44804e-05 0)
100.504       (0.97385 1.44804e-05 0)
100.505       (0.97385 1.44804e-05 0)
100.506       (0.97385 1.44804e-05 0)
100.507       (0.97385 1.44804e-05 0)
100.508       (0.97385 1.44804e-05 0)
100.509       (0.97385 1.44804e-05 0)
100.51        (0.97385 1.44804e-05 0)
100.511       (0.97385 1.44804e-05 0)
100.512       (0.97385 1.44804e-05 0)
100.513       (0.97385 1.44804e-05 0)
100.514       (0.97385 1.44804e-05 0)
100.515       (0.97385 1.44804e-05 0)
100.516       (0.97385 1.44804e-05 0)
100.517       (0.97385 1.44804e-05 0)
100.518       (0.97385 1.44804e-05 0)
100.519       (0.97385 1.44804e-05 0)
100.52        (0.97385 1.44804e-05 0)
100.521       (0.97385 1.44804e-05 0)
100.522       (0.97385 1.44804e-05 0)
100.523       (0.97385 1.44804e-05 0)
100.524       (0.97385 1.44804e-05 0)
100.525       (0.97385 1.44804e-05 0)
100.526       (0.97385 1.44804e-05 0)
100.527       (0.97385 1.44804e-05 0)
100.528       (0.97385 1.44804e-05 0)
100.529       (0.97385 1.44804e-05 0)
100.53        (0.97385 1.44804e-05 0)
100.531       (0.97385 1.44804e-05 0)
100.532       (0.97385 1.44804e-05 0)
100.533       (0.97385 1.44804e-05 0)
100.534       (0.97385 1.44804e-05 0)
100.535       (0.97385 1.44804e-05 0)
100.536       (0.97385 1.44804e-05 0)
100.537       (0.97385 1.44804e-05 0)
100.538       (0.97385 1.44805e-05 0)
100.539       (0.97385 1.44805e-05 0)
100.54        (0.97385 1.44805e-05 0)
100.541       (0.97385 1.44805e-05 0)
100.542       (0.97385 1.44805e-05 0)
100.543       (0.97385 1.44805e-05 0)
100.544       (0.97385 1.44805e-05 0)
100.545       (0.97385 1.44805e-05 0)
100.546       (0.97385 1.44805e-05 0)
100.547       (0.97385 1.44805e-05 0)
100.548       (0.97385 1.44805e-05 0)
100.549       (0.97385 1.44805e-05 0)
100.55        (0.97385 1.44805e-05 0)
100.551       (0.97385 1.44805e-05 0)
100.552       (0.97385 1.44805e-05 0)
100.553       (0.97385 1.44805e-05 0)
100.554       (0.97385 1.44805e-05 0)
100.555       (0.97385 1.44805e-05 0)
100.556       (0.97385 1.44805e-05 0)
100.557       (0.97385 1.44805e-05 0)
100.558       (0.97385 1.44805e-05 0)
100.559       (0.97385 1.44805e-05 0)
100.56        (0.97385 1.44805e-05 0)
100.561       (0.97385 1.44805e-05 0)
100.562       (0.97385 1.44805e-05 0)
100.563       (0.97385 1.44805e-05 0)
100.564       (0.97385 1.44805e-05 0)
100.565       (0.97385 1.44805e-05 0)
100.566       (0.97385 1.44805e-05 0)
100.567       (0.97385 1.44805e-05 0)
100.568       (0.97385 1.44805e-05 0)
100.569       (0.97385 1.44805e-05 0)
100.57        (0.97385 1.44805e-05 0)
100.571       (0.97385 1.44805e-05 0)
100.572       (0.97385 1.44805e-05 0)
100.573       (0.97385 1.44805e-05 0)
100.574       (0.97385 1.44805e-05 0)
100.575       (0.97385 1.44805e-05 0)
100.576       (0.97385 1.44805e-05 0)
100.577       (0.97385 1.44805e-05 0)
100.578       (0.97385 1.44805e-05 0)
100.579       (0.97385 1.44805e-05 0)
100.58        (0.97385 1.44805e-05 0)
100.581       (0.97385 1.44805e-05 0)
100.582       (0.97385 1.44805e-05 0)
100.583       (0.97385 1.44805e-05 0)
100.584       (0.97385 1.44805e-05 0)
100.585       (0.97385 1.44805e-05 0)
100.586       (0.97385 1.44805e-05 0)
100.587       (0.97385 1.44805e-05 0)
100.588       (0.97385 1.44806e-05 0)
100.589       (0.97385 1.44805e-05 0)
100.59        (0.97385 1.44806e-05 0)
100.591       (0.97385 1.44806e-05 0)
100.592       (0.97385 1.44806e-05 0)
100.593       (0.97385 1.44806e-05 0)
100.594       (0.97385 1.44806e-05 0)
100.595       (0.97385 1.44806e-05 0)
100.596       (0.97385 1.44806e-05 0)
100.597       (0.97385 1.44806e-05 0)
100.598       (0.97385 1.44806e-05 0)
100.599       (0.97385 1.44806e-05 0)
100.6         (0.97385 1.44806e-05 0)
100.601       (0.97385 1.44806e-05 0)
100.602       (0.97385 1.44806e-05 0)
100.603       (0.97385 1.44806e-05 0)
100.604       (0.97385 1.44806e-05 0)
100.605       (0.97385 1.44806e-05 0)
100.606       (0.97385 1.44806e-05 0)
100.607       (0.97385 1.44806e-05 0)
100.608       (0.97385 1.44806e-05 0)
100.609       (0.97385 1.44806e-05 0)
100.61        (0.97385 1.44806e-05 0)
100.611       (0.97385 1.44806e-05 0)
100.612       (0.97385 1.44806e-05 0)
100.613       (0.97385 1.44806e-05 0)
100.614       (0.97385 1.44806e-05 0)
100.615       (0.97385 1.44806e-05 0)
100.616       (0.97385 1.44806e-05 0)
100.617       (0.97385 1.44806e-05 0)
100.618       (0.97385 1.44806e-05 0)
100.619       (0.97385 1.44806e-05 0)
100.62        (0.97385 1.44806e-05 0)
100.621       (0.97385 1.44806e-05 0)
100.622       (0.97385 1.44806e-05 0)
100.623       (0.97385 1.44806e-05 0)
100.624       (0.97385 1.44806e-05 0)
100.625       (0.97385 1.44806e-05 0)
100.626       (0.97385 1.44806e-05 0)
100.627       (0.97385 1.44806e-05 0)
100.628       (0.97385 1.44806e-05 0)
100.629       (0.97385 1.44806e-05 0)
100.63        (0.97385 1.44806e-05 0)
100.631       (0.97385 1.44806e-05 0)
100.632       (0.97385 1.44806e-05 0)
100.633       (0.97385 1.44806e-05 0)
100.634       (0.97385 1.44807e-05 0)
100.635       (0.97385 1.44807e-05 0)
100.636       (0.97385 1.44807e-05 0)
100.637       (0.97385 1.44807e-05 0)
100.638       (0.97385 1.44807e-05 0)
100.639       (0.97385 1.44807e-05 0)
100.64        (0.97385 1.44807e-05 0)
100.641       (0.97385 1.44807e-05 0)
100.642       (0.97385 1.44807e-05 0)
100.643       (0.97385 1.44807e-05 0)
100.644       (0.97385 1.44807e-05 0)
100.645       (0.97385 1.44807e-05 0)
100.646       (0.97385 1.44807e-05 0)
100.647       (0.97385 1.44807e-05 0)
100.648       (0.97385 1.44807e-05 0)
100.649       (0.97385 1.44807e-05 0)
100.65        (0.97385 1.44807e-05 0)
100.651       (0.97385 1.44807e-05 0)
100.652       (0.97385 1.44807e-05 0)
100.653       (0.97385 1.44807e-05 0)
100.654       (0.97385 1.44807e-05 0)
100.655       (0.97385 1.44807e-05 0)
100.656       (0.97385 1.44807e-05 0)
100.657       (0.97385 1.44807e-05 0)
100.658       (0.97385 1.44807e-05 0)
100.659       (0.97385 1.44807e-05 0)
100.66        (0.97385 1.44807e-05 0)
100.661       (0.97385 1.44807e-05 0)
100.662       (0.97385 1.44807e-05 0)
100.663       (0.97385 1.44807e-05 0)
100.664       (0.97385 1.44807e-05 0)
100.665       (0.97385 1.44807e-05 0)
100.666       (0.97385 1.44807e-05 0)
100.667       (0.97385 1.44807e-05 0)
100.668       (0.97385 1.44807e-05 0)
100.669       (0.97385 1.44807e-05 0)
100.67        (0.97385 1.44807e-05 0)
100.671       (0.97385 1.44807e-05 0)
100.672       (0.97385 1.44807e-05 0)
100.673       (0.97385 1.44807e-05 0)
100.674       (0.97385 1.44807e-05 0)
100.675       (0.97385 1.44807e-05 0)
100.676       (0.97385 1.44807e-05 0)
100.677       (0.97385 1.44807e-05 0)
100.678       (0.97385 1.44807e-05 0)
100.679       (0.97385 1.44807e-05 0)
100.68        (0.97385 1.44807e-05 0)
100.681       (0.97385 1.44807e-05 0)
100.682       (0.97385 1.44807e-05 0)
100.683       (0.97385 1.44807e-05 0)
100.684       (0.97385 1.44807e-05 0)
100.685       (0.97385 1.44807e-05 0)
100.686       (0.97385 1.44807e-05 0)
100.687       (0.97385 1.44807e-05 0)
100.688       (0.97385 1.44807e-05 0)
100.689       (0.97385 1.44807e-05 0)
100.69        (0.97385 1.44807e-05 0)
100.691       (0.97385 1.44807e-05 0)
100.692       (0.97385 1.44807e-05 0)
100.693       (0.97385 1.44808e-05 0)
100.694       (0.97385 1.44808e-05 0)
100.695       (0.97385 1.44808e-05 0)
100.696       (0.97385 1.44808e-05 0)
100.697       (0.97385 1.44808e-05 0)
100.698       (0.97385 1.44808e-05 0)
100.699       (0.97385 1.44808e-05 0)
100.7         (0.97385 1.44808e-05 0)
100.701       (0.97385 1.44808e-05 0)
100.702       (0.97385 1.44808e-05 0)
100.703       (0.97385 1.44808e-05 0)
100.704       (0.97385 1.44808e-05 0)
100.705       (0.97385 1.44808e-05 0)
100.706       (0.97385 1.44808e-05 0)
100.707       (0.97385 1.44808e-05 0)
100.708       (0.97385 1.44808e-05 0)
100.709       (0.97385 1.44808e-05 0)
100.71        (0.97385 1.44808e-05 0)
100.711       (0.97385 1.44808e-05 0)
100.712       (0.97385 1.44808e-05 0)
100.713       (0.97385 1.44808e-05 0)
100.714       (0.97385 1.44808e-05 0)
100.715       (0.97385 1.44808e-05 0)
100.716       (0.97385 1.44808e-05 0)
100.717       (0.97385 1.44808e-05 0)
100.718       (0.97385 1.44808e-05 0)
100.719       (0.97385 1.44808e-05 0)
100.72        (0.97385 1.44808e-05 0)
100.721       (0.97385 1.44808e-05 0)
100.722       (0.97385 1.44808e-05 0)
100.723       (0.97385 1.44808e-05 0)
100.724       (0.97385 1.44808e-05 0)
100.725       (0.97385 1.44808e-05 0)
100.726       (0.97385 1.44808e-05 0)
100.727       (0.97385 1.44808e-05 0)
100.728       (0.97385 1.44808e-05 0)
100.729       (0.97385 1.44808e-05 0)
100.73        (0.97385 1.44808e-05 0)
100.731       (0.97385 1.44808e-05 0)
100.732       (0.97385 1.44808e-05 0)
100.733       (0.97385 1.44808e-05 0)
100.734       (0.97385 1.44808e-05 0)
100.735       (0.97385 1.44808e-05 0)
100.736       (0.97385 1.44808e-05 0)
100.737       (0.97385 1.44808e-05 0)
100.738       (0.97385 1.44808e-05 0)
100.739       (0.97385 1.44808e-05 0)
100.74        (0.97385 1.44808e-05 0)
100.741       (0.97385 1.44808e-05 0)
100.742       (0.97385 1.44808e-05 0)
100.743       (0.97385 1.44808e-05 0)
100.744       (0.97385 1.44808e-05 0)
100.745       (0.97385 1.44808e-05 0)
100.746       (0.97385 1.44808e-05 0)
100.747       (0.97385 1.44808e-05 0)
100.748       (0.97385 1.44808e-05 0)
100.749       (0.97385 1.44808e-05 0)
100.75        (0.97385 1.44808e-05 0)
100.751       (0.97385 1.44808e-05 0)
100.752       (0.97385 1.44808e-05 0)
100.753       (0.97385 1.44808e-05 0)
100.754       (0.973851 1.44808e-05 0)
100.755       (0.973851 1.44808e-05 0)
100.756       (0.973851 1.44808e-05 0)
100.757       (0.973851 1.44808e-05 0)
100.758       (0.973851 1.44808e-05 0)
100.759       (0.973851 1.44808e-05 0)
100.76        (0.973851 1.44808e-05 0)
100.761       (0.973851 1.44808e-05 0)
100.762       (0.973851 1.44808e-05 0)
100.763       (0.973851 1.44808e-05 0)
100.764       (0.973851 1.44808e-05 0)
100.765       (0.973851 1.44808e-05 0)
100.766       (0.973851 1.44808e-05 0)
100.767       (0.973851 1.44808e-05 0)