# Probe 0 (0.5 0.5 0.05)
# Time        0            
0.00025       -2.03711e-15 
0.0005        -1.17528e-14 
0.00075       5.17864e-15  
0.001         -2.77757e-14 
0.00125       2.39641e-14  
0.0015        4.30329e-15  
0.00175       5.48934e-14  
0.002         -5.13002e-14 
0.00225       1.54001e-14  
0.0025        -4.26993e-15 
0.00275       5.42743e-15  
0.003         -6.51116e-15 
0.00325       1.6198e-13   
0.0035        -1.42486e-13 
0.00375       1.00988e-13  
0.004         -3.02631e-14 
0.00425       -5.49945e-15 
0.0045        -1.27913e-14 
0.00475       7.25122e-14  
0.005         -7.24714e-14 
0.00525       -1.83715e-15 
0.0055        -2.24778e-14 
0.00575       2.39971e-14  
0.006         5.37765e-14  
0.00625       -6.59474e-14 
0.0065        1.55796e-13  
0.00675       -2.03147e-14 
0.007         -7.14381e-14 
0.00725       1.83528e-13  
0.0075        -1.36384e-13 
0.00775       1.12108e-13  
0.008         -3.44066e-14 
0.00825       3.48294e-14  
0.0085        -2.33476e-14 
0.00875       -5.86115e-15 
0.009         3.00667e-14  
0.00925       -7.893e-14   
0.0095        7.36589e-14  
0.00975       -1.27787e-14 
0.01          1.00444e-13  
0.01025       8.50042e-15  
0.0105        1.12304e-14  
0.01075       5.74379e-14  
0.011         -8.70725e-14 
0.01125       1.17737e-13  
0.0115        -9.98255e-14 
0.01175       2.32986e-14  
0.012         4.06836e-14  
0.01225       -6.53167e-14 
0.0125        2.32263e-13  
0.01275       -3.03592e-13 
0.013         5.97918e-14  
0.01325       -9.94719e-14 
0.0135        2.99225e-13  
0.01375       -1.95364e-13 
0.014         2.99736e-13  
0.01425       -2.48e-13    
0.0145        1.86016e-13  
0.01475       5.56837e-14  
0.015         -1.29893e-13 
0.01525       3.16116e-13  
0.0155        -4.15647e-13 
0.01575       4.76367e-13  
0.016         -1.65979e-14 
0.01625       -2.17776e-13 
0.0165        1.78448e-13  
0.01675       -2.55419e-13 
0.017         7.59759e-14  
0.01725       -2.11909e-13 
0.0175        1.28136e-13  
0.01775       -4.07429e-13 
0.018         3.28558e-13  
0.01825       -6.83392e-14 
0.0185        -1.74658e-14 
0.01875       6.27639e-14  
0.019         -1.37863e-13 
0.01925       8.45061e-14  
0.0195        -1.45637e-13 
0.01975       2.14727e-13  
0.02          -1.06351e-13 
0.02025       1.51218e-13  
0.0205        -1.02401e-13 
0.02075       3.72935e-14  
0.021         8.91303e-14  
0.02125       -4.35325e-14 
0.0215        3.02775e-13  
0.02175       -2.84821e-13 
0.022         7.18547e-14  
0.02225       -1.27053e-14 
0.0225        6.09356e-14  
0.02275       9.96949e-14  
0.023         -1.65097e-13 
0.02325       -7.28806e-14 
0.0235        1.41982e-13  
0.02375       -1.86927e-13 
0.024         3.28825e-13  
0.02425       -1.16377e-13 
0.0245        -7.04739e-14 
0.02475       3.31747e-13  
0.025         -2.35994e-13 
0.02525       3.07879e-13  
0.0255        -3.105e-13   
0.02575       4.2544e-13   
0.026         -3.24502e-13 
0.02625       3.03432e-13  
0.0265        -1.68148e-13 
0.02675       3.56368e-13  
0.027         -2.73884e-13 
0.02725       1.64315e-13  
0.0275        -2.38926e-13 
0.02775       2.25002e-13  
0.028         -2.2125e-13  
0.02825       1.91837e-13  
0.0285        -4.54952e-13 
0.02875       6.80834e-13  
0.029         -5.87582e-13 
0.02925       -1.16701e-13 
0.0295        7.67014e-13  
0.02975       -8.63014e-13 
0.03          3.12312e-13  
0.03025       -2.53833e-13 
0.0305        3.92457e-13  
0.03075       -6.59439e-14 
0.031         -4.01205e-13 
0.03125       3.70313e-13  
0.0315        -3.14342e-13 
0.03175       3.89846e-13  
0.032         -1.58255e-14 
0.03225       2.96682e-14  
0.0325        -9.52352e-14 
0.03275       6.8114e-14   
0.033         3.06888e-14  
0.03325       4.89421e-14  
0.0335        -4.09689e-14 
0.03375       1.13388e-14  
0.034         -1.37958e-13 
0.03425       8.23999e-14  
0.0345        2.49941e-13  
0.03475       -4.12544e-13 
0.035         3.80355e-13  
0.03525       -4.56515e-13 
0.0355        5.0654e-13   
0.03575       -3.30333e-13 
0.036         5.4349e-14   
0.03625       3.26014e-13  
0.0365        -1.7232e-13  
0.03675       1.00699e-14  
0.037         7.65498e-14  
0.03725       -1.83057e-13 
0.0375        -3.60601e-13 
0.03775       5.66099e-13  
0.038         -4.67863e-13 
0.03825       4.26845e-13  
0.0385        -1.24039e-13 
0.03875       -2.20098e-14 
0.039         1.09078e-13  
0.03925       -1.57309e-13 
0.0395        3.27156e-13  
0.03975       -3.14173e-13 
0.04          1.1081e-13   
0.04025       7.89221e-14  
0.0405        1.1802e-13   
0.04075       4.09675e-14  
0.041         -3.23649e-13 
0.04125       4.12606e-13  
0.0415        -3.53165e-13 
0.04175       3.82476e-13  
0.042         -3.62535e-14 
0.04225       8.98533e-14  
0.0425        2.73888e-13  
0.04275       -2.68098e-14 
0.043         1.95659e-13  
0.04325       -6.15427e-14 
0.0435        2.84646e-13  
0.04375       -5.49054e-13 
0.044         7.34781e-13  
0.04425       -5.47574e-13 
0.0445        2.53537e-13  
0.04475       -1.49635e-14 
0.045         -8.33478e-14 
0.04525       3.35664e-13  
0.0455        -3.56721e-13 
0.04575       1.86803e-13  
0.046         1.44073e-13  
0.04625       -3.4413e-13  
0.0465        4.94805e-13  
0.04675       -5.76292e-13 
0.047         1.29396e-13  
0.04725       5.01153e-13  
0.0475        -2.25563e-13 
0.04775       6.94473e-14  
0.048         3.28656e-13  
0.04825       -3.20202e-15 
0.0485        -1.56483e-13 
0.04875       2.11943e-13  
0.049         1.70326e-13  
0.04925       2.52095e-13  
0.0495        -5.25483e-13 
0.04975       -5.96194e-14 
0.05          8.13747e-13  
0.05025       -9.09229e-13 
0.0505        8.82731e-13  
0.05075       4.696e-14    
0.051         -6.69387e-13 
0.05125       -2.06145e-13 
0.0515        2.13383e-13  
0.05175       -3.83844e-13 
0.052         2.81449e-13  
0.05225       -4.24524e-13 
0.0525        9.59186e-15  
0.05275       2.29483e-13  
0.053         -5.87197e-13 
0.05325       8.48044e-13  
0.0535        -6.2803e-13  
0.05375       -1.62788e-14 
0.054         6.09797e-13  
0.05425       -2.85785e-13 
0.0545        3.91874e-13  
0.05475       -5.68787e-13 
0.055         2.54283e-13  
0.05525       3.13762e-13  
0.0555        -1.09919e-12 
0.05575       9.22249e-13  
0.056         1.86471e-13  
0.05625       -8.6247e-13  
0.0565        1.02347e-12  
0.05675       -3.1744e-13  
0.057         -9.94442e-14 
0.05725       4.19932e-13  
0.0575        -8.20119e-13 
0.05775       1.37762e-12  
0.058         -7.51389e-13 
0.05825       9.63308e-13  
0.0585        -9.00259e-13 
0.05875       8.49978e-13  
0.059         -7.41904e-16 
0.05925       2.58197e-13  
0.0595        3.72977e-13  
0.05975       -9.9871e-13  
0.06          1.52921e-12  
0.06025       -6.51416e-13 
0.0605        6.29293e-13  
0.06075       -4.0318e-13  
0.061         -2.02527e-13 
0.06125       1.18661e-12  
0.0615        -1.12394e-12 
0.06175       6.08597e-13  
0.062         -7.36102e-13 
0.06225       6.11727e-15  
0.0625        3.32592e-14  
0.06275       6.41361e-13  
0.063         -9.47201e-13 
0.06325       1.20925e-12  
0.0635        -4.95505e-13 
0.06375       6.3565e-13   
0.064         -5.15156e-13 
0.06425       1.85914e-13  
0.0645        3.74927e-13  
0.06475       -1.06504e-12 
0.065         9.22574e-13  
0.06525       -3.85558e-13 
0.0655        -4.68277e-13 
0.06575       3.7806e-13   
0.066         9.80122e-13  
0.06625       -8.84771e-13 
0.0665        4.94683e-13  
0.06675       -4.30854e-13 
0.067         4.98281e-13  
0.06725       2.32778e-13  
0.0675        -7.12804e-13 
0.06775       6.31615e-13  
0.068         -9.62264e-13 
0.06825       7.48042e-13  
0.0685        -5.02864e-13 
0.06875       1.34199e-12  
0.069         -8.40681e-13 
0.06925       5.58315e-13  
0.0695        -4.94881e-13 
0.06975       9.54018e-13  
0.07          -1.92475e-13 
0.07025       -2.63043e-13 
0.0705        1.01044e-12  
0.07075       -1.33329e-13 
0.071         -5.34417e-13 
0.07125       9.10393e-13  
0.0715        -2.06095e-13 
0.07175       7.27495e-14  
0.072         9.10868e-13  
0.07225       2.64433e-13  
0.0725        -5.92496e-13 
0.07275       6.89776e-13  
0.073         -6.78523e-13 
0.07325       8.02071e-13  
0.0735        -7.8876e-13  
0.07375       5.49398e-13  
0.074         -1.24815e-13 
0.07425       2.06454e-14  
0.0745        -3.40754e-14 
0.07475       1.09881e-12  
0.075         -6.60096e-13 
0.07525       3.11343e-13  
0.0755        -2.4074e-13  
0.07575       1.19878e-12  
0.076         -3.41253e-13 
0.07625       -6.44874e-13 
0.0765        1.00599e-12  
0.07675       -7.46004e-14 
0.077         9.19477e-13  
0.07725       -7.07218e-13 
0.0775        -1.34644e-13 
0.07775       1.02347e-12  
0.078         -1.10511e-12 
0.07825       2.18356e-13  
0.0785        6.07004e-13  
0.07875       -1.56267e-12 
0.079         1.35059e-12  
0.07925       9.94656e-14  
0.0795        -5.54776e-13 
0.07975       8.81457e-13  
0.08          -5.9218e-13  
0.08025       3.39137e-13  
0.0805        4.55016e-14  
0.08075       2.91731e-13  
0.081         -7.45404e-13 
0.08125       1.04842e-12  
0.0815        -1.09055e-12 
0.08175       1.10068e-12  
0.082         -1.31766e-12 
0.08225       1.72518e-12  
0.0825        -9.8284e-13  
0.08275       1.06755e-12  
0.083         9.69111e-14  
0.08325       1.9746e-13   
0.0835        -1.67726e-13 
0.08375       1.68422e-13  
0.084         8.98259e-15  
0.08425       -3.10997e-13 
0.0845        1.46276e-13  
0.08475       1.84962e-13  
0.085         -1.6926e-13  
0.08525       7.77639e-14  
0.0855        -1.42253e-13 
0.08575       1.16869e-12  
0.086         -7.2806e-13  
0.08625       -1.28024e-13 
0.0865        1.12698e-12  
0.08675       -1.13916e-12 
0.087         7.90691e-13  
0.08725       -6.03353e-13 
0.0875        5.30148e-13  
0.08775       -6.21218e-13 
0.088         3.67899e-13  
0.08825       2.25013e-13  
0.0885        9.09504e-14  
0.08875       -2.86045e-13 
0.089         3.90137e-13  
0.08925       -9.08583e-13 
0.0895        2.67009e-13  
0.08975       7.91015e-13  
0.09          -8.81088e-13 
0.09025       3.75889e-13  
0.0905        6.8716e-13   
0.09075       -3.54222e-13 
0.091         2.78366e-13  
0.09125       -2.19035e-13 
0.0915        9.74973e-15  
0.09175       -1.04654e-14 
0.092         -6.31885e-14 
0.09225       1.30894e-13  
0.0925        6.67699e-13  
0.09275       -2.17503e-13 
0.093         -1.08064e-13 
0.09325       1.26137e-13  
0.0935        8.27247e-13  
0.09375       -6.26963e-13 
0.094         8.25415e-13  
0.09425       -8.00146e-13 
0.0945        2.42822e-13  
0.09475       -2.05505e-14 
0.095         -4.8906e-14  
0.09525       -4.83806e-13 
0.0955        1.5516e-12   
0.09575       -1.149e-12   
0.096         5.22391e-13  
0.09625       1.84387e-13  
0.0965        -1.09939e-13 
0.09675       4.06695e-13  
0.097         -5.98438e-13 
0.09725       3.81462e-13  
0.0975        7.1403e-13   
0.09775       -5.01746e-13 
0.098         1.35284e-12  
0.09825       -6.49569e-13 
0.0985        3.137e-13    
0.09875       9.45625e-13  
0.099         -1.70769e-12 
0.09925       1.38266e-12  
0.0995        7.48814e-13  
0.09975       -1.06043e-12 
0.1           9.58194e-13  
0.10025       4.41745e-14  
0.1005        1.67755e-13  
0.10075       -1.69069e-12 
0.101         3.90382e-12  
0.10125       -2.43092e-12 
0.1015        6.64055e-13  
0.10175       7.30303e-13  
0.102         6.20985e-13  
0.10225       -6.82945e-13 
0.1025        1.82049e-13  
0.10275       -1.19815e-12 
0.103         7.69612e-13  
0.10325       1.66001e-15  
0.1035        -5.69577e-13 
0.10375       1.25817e-12  
0.104         -1.29968e-12 
0.10425       2.52117e-12  
0.1045        -1.11784e-12 
0.10475       1.19947e-12  
0.105         -2.07614e-12 
0.10525       1.30984e-12  
0.1055        1.38731e-13  
0.10575       -1.08928e-12 
0.106         -1.2602e-13  
0.10625       2.00085e-12  
0.1065        -1.33519e-12 
0.10675       1.38104e-12  
0.107         -2.20852e-12 
0.10725       3.0478e-12   
0.1075        -1.58352e-12 
0.10775       1.45666e-12  
0.108         -4.21489e-13 
0.10825       6.62947e-14  
0.1085        -1.65212e-13 
0.10875       1.53911e-13  
0.109         -1.05447e-12 
0.10925       2.49823e-12  
0.1095        -1.47727e-12 
0.10975       1.42113e-12  
0.11          -7.38104e-13 
0.11025       2.48424e-12  
0.1105        -2.06945e-12 
0.11075       4.76215e-13  
0.111         -6.25672e-13 
0.11125       7.09052e-13  
0.1115        -6.10137e-13 
0.11175       3.08231e-13  
0.112         -7.72563e-13 
0.11225       1.64703e-12  
0.1125        -8.95831e-13 
0.11275       1.23971e-12  
0.113         -1.25489e-12 
0.11325       2.79693e-12  
0.1135        -1.23718e-12 
0.11375       1.39767e-12  
0.114         1.01721e-12  
0.11425       -1.54909e-12 
0.1145        -2.15199e-13 
0.11475       3.17299e-12  
0.115         -2.024e-12   
0.11525       3.97266e-13  
0.1155        -9.9981e-14  
0.11575       2.06428e-12  
0.116         -1.69505e-12 
0.11625       -4.81861e-14 
0.1165        1.06801e-12  
0.11675       -3.52129e-13 
0.117         -5.06131e-13 
0.11725       3.24821e-13  
0.1175        1.69356e-12  
0.11775       -2.5101e-12  
0.118         3.31109e-13  
0.11825       1.4469e-12   
0.1185        3.22209e-13  
0.11875       -1.01248e-13 
0.119         -5.34006e-13 
0.11925       4.93509e-13  
0.1195        3.74419e-13  
0.11975       -1.89839e-12 
0.12          2.6277e-12   
0.12025       -2.43889e-12 
0.1205        6.33906e-13  
0.12075       2.65087e-13  
0.121         -7.12863e-13 
0.12125       1.63631e-12  
0.1215        -3.20183e-13 
0.12175       -1.30605e-12 
0.122         2.59341e-12  
0.12225       -1.62715e-12 
0.1225        1.45954e-12  
0.12275       -1.37751e-12 
0.123         1.56683e-12  
0.12325       -7.22382e-13 
0.1235        7.77879e-14  
0.12375       3.3528e-13   
0.124         1.14179e-13  
0.12425       5.34208e-13  
0.1245        -1.54463e-13 
0.12475       6.6484e-13   
0.125         -6.73216e-13 
0.12525       5.3005e-13   
0.1255        -1.44e-12    
0.12575       2.60503e-12  
0.126         -2.46809e-12 
0.12625       4.48613e-13  
0.1265        9.71031e-13  
0.12675       -1.70187e-12 
0.127         1.79691e-12  
0.12725       5.62783e-14  
0.1275        7.96521e-13  
0.12775       -2.65875e-12 
0.128         3.59846e-12  
0.12825       -1.90133e-12 
0.1285        7.05416e-13  
0.12875       -1.39734e-12 
0.129         2.01512e-12  
0.12925       -1.06613e-12 
0.1295        1.36143e-12  
0.12975       -1.25028e-12 
0.13          2.07801e-12  
0.13025       -9.66921e-13 
0.1305        -2.02156e-13 
0.13075       8.64283e-13  
0.131         -9.95631e-13 
0.13125       8.53788e-13  
0.1315        -9.29631e-13 
0.13175       1.14342e-13  
0.132         -7.36593e-14 
0.13225       6.43293e-13  
0.1325        -5.71259e-13 
0.13275       2.25196e-13  
0.133         1.59811e-13  
0.13325       -5.44878e-13 
0.1335        2.21681e-12  
0.13375       -1.48275e-12 
0.134         1.17171e-12  
0.13425       -1.25664e-13 
0.1345        1.23219e-12  
0.13475       -1.3986e-12  
0.135         1.53286e-12  
0.13525       -1.43678e-12 
0.1355        2.25237e-12  
0.13575       -1.34481e-12 
0.136         7.37966e-13  
0.13625       -2.93164e-15 
0.1365        1.14219e-13  
0.13675       -1.61516e-12 
0.137         2.54282e-12  
0.13725       2.91537e-13  
0.1375        -3.52597e-13 
0.13775       4.39049e-13  
0.138         -7.21672e-13 
0.13825       3.86928e-13  
0.1385        8.62758e-13  
0.13875       -1.18612e-12 
0.139         2.37085e-12  
0.13925       -3.13666e-12 
0.1395        1.64985e-12  
0.13975       1.21019e-13  
0.14          4.60639e-14  
0.14025       1.52716e-12  
0.1405        -1.27222e-12 
0.14075       3.5103e-13   
0.141         -3.82739e-13 
0.14125       1.28277e-13  
0.1415        5.97052e-13  
0.14175       1.67973e-13  
0.142         -1.19431e-12 
0.14225       2.60712e-12  
0.1425        -1.48638e-12 
0.14275       -3.44952e-14 
0.143         2.31635e-12  
0.14325       -1.89794e-12 
0.1435        6.46986e-13  
0.14375       -8.01933e-13 
0.144         1.77835e-13  
0.14425       4.13744e-13  
0.1445        8.80563e-13  
0.14475       1.53569e-13  
0.145         -3.15209e-13 
0.14525       -1.13507e-12 
0.1455        1.13778e-12  
0.14575       7.1704e-13   
0.146         2.29366e-13  
0.14625       -6.07961e-14 
0.1465        -4.14945e-13 
0.14675       -2.98544e-13 
0.147         -4.24735e-14 
0.14725       1.09405e-12  
0.1475        -6.6541e-13  
0.14775       -1.37497e-13 
0.148         6.11388e-13  
0.14825       -1.04879e-12 
0.1485        3.45211e-13  
0.14875       -7.90529e-13 
0.149         6.00598e-13  
0.14925       1.91058e-12  
0.1495        -1.30511e-12 
0.14975       1.31633e-12  
0.15          -4.95681e-13 
0.15025       -1.07267e-12 
0.1505        1.87373e-12  
0.15075       -4.65512e-13 
0.151         -9.49652e-15 
0.15125       1.88356e-12  
0.1515        -1.96156e-12 
0.15175       8.70312e-13  
0.152         6.29662e-13  
0.15225       -2.18125e-13 
0.1525        -2.13642e-13 
0.15275       1.31599e-12  
0.153         -1.57583e-12 
0.15325       1.91054e-12  
0.1535        -2.72615e-12 
0.15375       2.8616e-12   
0.154         -9.42903e-13 
0.15425       1.64145e-12  
0.1545        -1.39358e-12 
0.15475       1.89225e-12  
0.155         -6.14401e-13 
0.15525       8.07431e-13  
0.1555        -2.04552e-12 
0.15575       2.83819e-12  
0.156         -1.3195e-12  
0.15625       1.19409e-12  
0.1565        1.41891e-13  
0.15675       -3.31421e-13 
0.157         -1.02711e-12 
0.15725       4.18201e-13  
0.1575        9.47138e-13  
0.15775       -5.30299e-13 
0.158         1.81879e-12  
0.15825       -3.6899e-13  
0.1585        -1.04393e-12 
0.15875       1.99456e-12  
0.159         -2.07222e-12 
0.15925       1.50717e-12  
0.1595        4.69446e-13  
0.15975       -7.49135e-14 
0.16          1.03932e-12  
0.16025       -8.42392e-13 
0.1605        1.61078e-12  
0.16075       -1.47205e-12 
0.161         1.08581e-12  
0.16125       -7.51648e-13 
0.1615        -6.37443e-13 
0.16175       5.28636e-13  
0.162         -6.96628e-13 
0.16225       1.01955e-12  
0.1625        -4.51299e-13 
0.16275       1.61763e-13  
0.163         -9.3269e-14  
0.16325       6.57157e-14  
0.1635        1.23045e-13  
0.16375       3.96318e-13  
0.164         -2.2017e-14  
0.16425       4.50613e-13  
0.1645        8.45497e-13  
0.16475       -9.21032e-13 
0.165         -1.01651e-13 
0.16525       1.46299e-12  
0.1655        -4.65781e-14 
0.16575       -1.98856e-12 
0.166         1.16022e-12  
0.16625       8.97303e-14  
0.1665        1.7671e-12   
0.16675       -1.90123e-12 
0.167         5.24059e-13  
0.16725       -7.88494e-13 
0.1675        6.66086e-13  
0.16775       -8.77865e-13 
0.168         1.76489e-13  
0.16825       4.69839e-14  
0.1685        -4.74489e-13 
0.16875       1.00458e-12  
0.169         1.41477e-12  
0.16925       -1.03149e-13 
0.1695        -1.62959e-14 
0.16975       6.00441e-13  
0.17          -9.61744e-13 
0.17025       1.3058e-12   
0.1705        4.00223e-13  
0.17075       3.62159e-13  
0.171         -5.14214e-13 
0.17125       6.01075e-13  
0.1715        5.62218e-13  
0.17175       5.35896e-13  
0.172         -2.1654e-12  
0.17225       1.66065e-12  
0.1725        -6.86557e-13 
0.17275       4.97902e-13  
0.173         9.12602e-14  
0.17325       -9.00611e-13 
0.1735        4.52961e-13  
0.17375       5.02405e-13  
0.174         4.72116e-13  
0.17425       1.75216e-13  
0.1745        -8.40564e-13 
0.17475       5.99296e-13  
0.175         -3.68908e-13 
0.17525       8.07083e-13  
0.1755        -9.74855e-13 
0.17575       1.48353e-12  
0.176         4.04733e-13  
0.17625       -1.29e-12    
0.1765        -4.04612e-13 
0.17675       9.28024e-13  
0.177         -2.26474e-12 
0.17725       1.99691e-12  
0.1775        -1.6653e-12  
0.17775       1.44696e-12  
0.178         -1.17802e-12 
0.17825       1.79279e-12  
0.1785        -1.22961e-12 
0.17875       -7.72309e-13 
0.179         2.68418e-13  
0.17925       -9.13614e-13 
0.1795        1.57402e-12  
0.17975       -1.83375e-12 
0.18          9.42264e-13  
0.18025       5.71244e-13  
0.1805        3.71911e-13  
0.18075       -1.79708e-12 
0.181         -1.50555e-13 
0.18125       2.62039e-12  
0.1815        -1.32916e-12 
0.18175       -2.34655e-13 
0.182         3.75985e-13  
0.18225       3.12169e-13  
0.1825        -2.77765e-13 
0.18275       1.46125e-12  
0.183         -5.44852e-13 
0.18325       6.307e-13    
0.1835        -9.49691e-13 
0.18375       9.87315e-13  
0.184         -1.70453e-12 
0.18425       1.62568e-12  
0.1845        -3.01962e-13 
0.18475       -9.58571e-13 
0.185         1.97285e-12  
0.18525       -7.03448e-13 
0.1855        1.08029e-12  
0.18575       -7.02861e-13 
0.186         -7.14556e-14 
0.18625       9.26709e-13  
0.1865        -1.16513e-12 
0.18675       8.09195e-13  
0.187         -9.26012e-13 
0.18725       1.15747e-12  
0.1875        1.8933e-13   
0.18775       3.44123e-13  
0.188         3.64986e-13  
0.18825       -3.7938e-13  
0.1885        9.63295e-13  
0.18875       -1.4671e-12  
0.189         2.60179e-12  
0.18925       -1.92251e-12 
0.1895        2.87169e-13  
0.18975       1.30637e-12  
0.19          1.05235e-13  
0.19025       -9.17727e-13 
0.1905        2.74602e-12  
0.19075       -2.03619e-12 
0.191         3.18805e-13  
0.19125       9.46077e-14  
0.1915        -9.10824e-14 
0.19175       9.09057e-13  
0.192         -4.91573e-13 
0.19225       9.46694e-13  
0.1925        -1.13126e-13 
0.19275       2.35486e-13  
0.193         2.16523e-13  
0.19325       1.02081e-13  
0.1935        -1.61397e-13 
0.19375       -3.02184e-13 
0.194         1.2169e-13   
0.19425       8.68295e-13  
0.1945        5.77222e-13  
0.19475       -2.37415e-13 
0.195         -1.52251e-13 
0.19525       -6.80631e-14 
0.1955        4.77803e-13  
0.19575       1.51912e-12  
0.196         -3.97201e-12 
0.19625       4.712e-12    
0.1965        -2.29087e-12 
0.19675       3.1169e-12   
0.197         -2.93965e-12 
0.19725       1.8389e-12   
0.1975        -2.31581e-13 
0.19775       -3.56547e-12 
0.198         2.88192e-12  
0.19825       -4.50322e-13 
0.1985        3.71037e-14  
0.19875       2.40706e-12  
0.199         -3.71887e-12 
0.19925       5.0655e-12   
0.1995        -2.27696e-12 
0.19975       2.99095e-12  
0.2           -5.49833e-12 
0.20025       4.92876e-12  
0.2005        -1.97189e-12 
0.20075       2.18899e-12  
0.201         8.63642e-13  
0.20125       -2.76712e-12 
0.2015        3.8525e-12   
0.20175       -3.72192e-12 
0.202         1.97307e-12  
0.20225       -1.87778e-12 
0.2025        2.65427e-12  
0.20275       -1.83077e-12 
0.203         -3.80091e-13 
0.20325       5.38879e-13  
0.2035        -1.09337e-12 
0.20375       2.32535e-12  
0.204         -2.60183e-12 
0.20425       4.9698e-12   
0.2045        -3.7311e-12  
0.20475       1.47284e-13  
0.205         -3.85781e-13 
0.20525       7.29112e-13  
0.2055        -6.7532e-13  
0.20575       1.05243e-12  
0.206         -7.44298e-13 
0.20625       1.97448e-13  
0.2065        5.84927e-13  
0.20675       7.6669e-13   
0.207         -8.35292e-13 
0.20725       1.6995e-13   
0.2075        5.38803e-13  
0.20775       9.78272e-13  
0.208         -4.01703e-12 
0.20825       2.77721e-12  
0.2085        -1.19973e-12 
0.20875       2.78606e-12  
0.209         -8.19353e-13 
0.20925       1.04111e-12  
0.2095        2.37908e-12  
0.20975       -4.93762e-12 
0.21          3.31577e-12  
0.21025       2.74215e-13  
0.2105        -1.21956e-12 
0.21075       2.3523e-12   
0.211         5.64471e-13  
0.21125       -2.52582e-12 
0.2115        2.89408e-12  
0.21175       -2.85799e-12 
0.212         1.03286e-12  
0.21225       -1.02638e-12 
0.2125        3.17349e-12  
0.21275       -4.641e-12   
0.213         3.48218e-12  
0.21325       -4.59566e-12 
0.2135        4.48842e-12  
0.21375       -2.01892e-12 
0.214         9.24605e-13  
0.21425       9.11027e-13  
0.2145        -8.47155e-14 
0.21475       -1.70324e-12 
0.215         2.62126e-12  
0.21525       -2.23732e-12 
0.2155        4.32384e-12  
0.21575       -1.93292e-12 
0.216         1.23442e-12  
0.21625       1.80225e-13  
0.2165        -1.07849e-13 
0.21675       1.34581e-12  
0.217         -6.82118e-13 
0.21725       1.42058e-12  
0.2175        -5.50896e-13 
0.21775       -1.25355e-12 
0.218         4.78926e-12  
0.21825       -2.78711e-12 
0.2185        7.68307e-13  
0.21875       1.31577e-12  
0.219         -1.55609e-12 
0.21925       1.8566e-12   
0.2195        -2.17597e-15 
0.21975       -6.05511e-14 
0.22          -1.1225e-12  
0.22025       6.27201e-13  
0.2205        -9.09687e-13 
0.22075       3.04465e-13  
0.221         -1.62349e-12 
0.22125       1.02595e-14  
0.2215        4.71415e-13  
0.22175       4.59257e-13  
0.222         3.98866e-14  
0.22225       -1.15796e-12 
0.2225        9.23078e-13  
0.22275       5.60083e-13  
0.223         -1.47391e-12 
0.22325       2.05366e-12  
0.2235        1.38175e-12  
0.22375       -2.07498e-12 
0.224         1.66844e-12  
0.22425       -2.11376e-13 
0.2245        -6.79728e-13 
0.22475       -1.47859e-12 
0.225         2.62838e-12  
0.22525       -2.2828e-12  
0.2255        6.59656e-13  
0.22575       -3.14278e-12 
0.226         1.78946e-12  
0.22625       6.94103e-13  
0.2265        -1.97e-12    
0.22675       7.53198e-13  
0.227         -3.73303e-13 
0.22725       1.72721e-13  
0.2275        -1.63127e-12 
0.22775       5.07603e-12  
0.228         -3.76026e-12 
0.22825       5.86532e-12  
0.2285        -3.9329e-12  
0.22875       1.78222e-12  
0.229         -1.71185e-12 
0.22925       6.83179e-13  
0.2295        -7.38198e-13 
0.22975       1.29717e-12  
0.23          -2.7427e-12  
0.23025       3.70823e-12  
0.2305        -3.98788e-12 
0.23075       3.75991e-12  
0.231         -3.06467e-12 
0.23125       -4.92566e-14 
0.2315        2.33635e-12  
0.23175       -1.10208e-12 
0.232         8.21062e-13  
0.23225       2.32695e-13  
0.2325        1.05493e-12  
0.23275       -1.13119e-12 
0.233         3.08501e-12  
0.23325       -2.30357e-12 
0.2335        2.02863e-12  
0.23375       -3.20259e-12 
0.234         1.54944e-12  
0.23425       -1.23637e-12 
0.2345        8.28368e-13  
0.23475       -4.08478e-14 
0.235         -1.38366e-12 
0.23525       8.42531e-13  
0.2355        -1.07006e-12 
0.23575       3.00805e-12  
0.236         -1.34804e-12 
0.23625       6.49384e-13  
0.2365        1.62869e-12  
0.23675       -4.2044e-12  
0.237         3.09763e-12  
0.23725       -2.74197e-12 
0.2375        4.62162e-12  
0.23775       -6.05228e-12 
0.238         7.65561e-12  
0.23825       -2.2291e-12  
0.2385        4.7877e-13   
0.23875       -2.10492e-13 
0.239         1.36826e-14  
0.23925       1.79602e-12  
0.2395        -3.27901e-12 
0.23975       4.98018e-12  
0.24          3.40584e-13  
0.24025       -2.63238e-12 
0.2405        -1.13621e-12 
0.24075       4.45179e-12  
0.241         -1.50598e-12 
0.24125       -1.09838e-12 
0.2415        2.00842e-12  
0.24175       -5.11953e-13 
0.242         -7.47103e-13 
0.24225       1.99295e-12  
0.2425        -7.25127e-13 
0.24275       1.53057e-12  
0.243         -1.54647e-12 
0.24325       1.56436e-12  
0.2435        -2.41275e-12 
0.24375       2.74907e-12  
0.244         -2.92767e-12 
0.24425       3.94449e-12  
0.2445        -2.40837e-12 
0.24475       2.09344e-12  
0.245         -2.36662e-12 
0.24525       3.64944e-12  
0.2455        -2.70793e-12 
0.24575       9.74308e-13  
0.246         -7.56844e-13 
0.24625       9.94842e-13  
0.2465        -8.14267e-13 
0.24675       1.25411e-12  
0.247         1.76659e-12  
0.24725       -1.89837e-12 
0.2475        1.54614e-12  
0.24775       2.3406e-12   
0.248         -3.69231e-12 
0.24825       4.9961e-12   
0.2485        -6.13956e-12 
0.24875       3.979e-12    
0.249         -4.37229e-12 
0.24925       2.32789e-12  
0.2495        1.84777e-12  
0.24975       -2.07704e-12 
0.25          -1.58955e-12 
0.25025       2.8752e-12   
0.2505        -4.39984e-12 
0.25075       2.90123e-12  
0.251         -1.60329e-12 
0.25125       5.06999e-12  
0.2515        -1.95009e-12 
0.25175       2.98981e-12  
0.252         -3.56164e-12 
0.25225       2.09161e-12  
0.2525        9.6384e-13   
0.25275       -2.36338e-12 
0.253         5.74022e-12  
0.25325       -4.29887e-12 
0.2535        4.52142e-12  
0.25375       -5.46939e-12 
0.254         2.60812e-12  
0.25425       -1.23315e-13 
0.2545        -2.02678e-12 
0.25475       5.02742e-14  
0.255         1.61557e-12  
0.25525       1.66638e-12  
0.2555        -3.59158e-12 
0.25575       2.81681e-12  
0.256         -4.37292e-12 
0.25625       3.00238e-12  
0.2565        -3.89758e-13 
0.25675       -1.63746e-12 
0.257         4.1393e-12   
0.25725       -5.90529e-12 
0.2575        5.98165e-12  
0.25775       -1.63478e-12 
0.258         1.39695e-12  
0.25825       -5.88487e-13 
0.2585        7.45345e-13  
0.25875       1.38698e-12  
0.259         -4.23411e-12 
0.25925       3.17172e-12  
0.2595        -2.02268e-12 
0.25975       3.56344e-13  
0.26          9.63037e-13  
0.26025       5.09658e-13  
0.2605        5.58312e-13  
0.26075       -1.45372e-12 
0.261         1.15106e-12  
0.26125       -1.51748e-12 
0.2615        -4.8557e-13  
0.26175       4.88311e-12  
0.262         -2.58973e-12 
0.26225       1.87785e-12  
0.2625        -1.5706e-12  
0.26275       2.02787e-12  
0.263         -1.86793e-12 
0.26325       4.67355e-12  
0.2635        -4.1603e-12  
0.26375       2.5871e-12   
0.264         -2.51555e-13 
0.26425       -1.07653e-12 
0.2645        -1.85123e-12 
0.26475       5.57695e-12  
0.265         -5.8538e-12  
0.26525       7.06511e-12  
0.2655        -7.65739e-12 
0.26575       5.67206e-12  
0.266         -2.96419e-12 
0.26625       3.74152e-12  
0.2665        -1.41655e-12 
0.26675       8.72658e-13  
0.267         5.63993e-14  
0.26725       1.15079e-12  