# Probe 0  0.5 0.5 0.05 
# Time        0            
0.00025        0.00124829 -3.52289e-19 0 
0.0005         0.00249741 3.99935e-19 0 
0.00075        0.00374681 4.45043e-19 0 
0.001          0.00499631 1.97937e-18 0 
0.00125        0.00624583 7.45336e-19 0 
0.0015         0.00749537 4.19093e-19 0 
0.00175        0.00874491 2.18438e-19 0 
0.002          0.00999445 1.16941e-18 0 
0.00225        0.011244 1.76606e-18 0 
0.0025         0.0124935 2.56565e-18 0 
0.00275        0.0137431 2.53919e-18 0 
0.003          0.0149926 1.68361e-18 0 
0.00325        0.0162422 -4.63791e-19 0 
0.0035         0.0174917 2.91821e-18 0 
0.00375        0.0187412 4.13242e-18 0 
0.004          0.0199908 4.08588e-18 0 
0.00425        0.0212403 3.37762e-18 0 
0.0045         0.0224899 3.56976e-18 0 
0.00475        0.0237394 3.92689e-18 0 
0.005          0.0249889 7.78408e-18 0 
0.00525        0.0262385 8.08414e-18 0 
0.0055         0.027488 8.68884e-18 0 
0.00575        0.0287376 9.5778e-18 0 
0.006          0.0299871 6.76158e-18 0 
0.00625        0.0312366 8.78976e-18 0 
0.0065         0.0324862 8.13129e-18 0 
0.00675        0.0337357 4.25124e-18 0 
0.007          0.0349852 5.89761e-18 0 
0.00725        0.0362348 3.79021e-18 0 
0.0075         0.0374843 9.40355e-18 0 
0.00775        0.0387339 1.05647e-17 0 
0.008          0.0399834 7.62514e-18 0 
0.00825        0.0412329 1.18887e-17 0 
0.0085         0.0424825 1.06236e-17 0 
0.00875        0.043732 8.27429e-18 0 
0.009          0.0449816 9.77527e-18 0 
0.00925        0.0462311 1.28567e-17 0 
0.0095         0.0474806 2.08327e-17 0 
0.00975        0.0487302 1.36865e-17 0 
0.01           0.0499797 1.67603e-17 0 
0.01025        0.0512292 1.95385e-17 0 
0.0105         0.0524788 2.15764e-17 0 
0.01075        0.0537283 2.09793e-17 0 
0.011          0.0549779 2.07027e-17 0 
0.01125        0.0562274 2.13352e-17 0 
0.0115         0.0574769 2.00983e-17 0 
0.01175        0.0587265 1.53984e-17 0 
0.012          0.059976 1.77654e-17 0 
0.01225        0.0612255 2.26447e-17 0 
0.0125         0.0624751 1.78381e-17 0 
0.01275        0.0637246 2.87603e-17 0 
0.013          0.0649741 2.31993e-17 0 
0.01325        0.0662237 3.47484e-17 0 
0.0135         0.0674732 2.80162e-17 0 
0.01375        0.0687227 2.89682e-17 0 
0.014          0.0699723 2.43427e-17 0 
0.01425        0.0712218 2.56261e-17 0 
0.0145         0.0724714 2.65716e-17 0 
0.01475        0.0737209 3.9007e-17 0 
0.015          0.0749704 4.7245e-17 0 
0.01525        0.07622 3.57872e-17 0 
0.0155         0.0774695 3.98332e-17 0 
0.01575        0.078719 3.50465e-17 0 
0.016          0.0799686 3.08377e-17 0 
0.01625        0.0812181 3.46522e-17 0 
0.0165         0.0824676 3.78975e-17 0 
0.01675        0.0837172 3.90484e-17 0 
0.017          0.0849667 4.36165e-17 0 
0.01725        0.0862162 4.34333e-17 0 
0.0175         0.0874658 5.47785e-17 0 
0.01775        0.0887153 4.83699e-17 0 
0.018          0.0899648 5.58294e-17 0 
0.01825        0.0912144 6.7693e-17 0 
0.0185         0.0924639 6.84769e-17 0 
0.01875        0.0937134 6.72486e-17 0 
0.019          0.094963 7.72491e-17 0 
0.01925        0.0962125 8.51849e-17 0 
0.0195         0.097462 8.76801e-17 0 
0.01975        0.0987116 8.06359e-17 0 
0.02           0.0999611 8.68438e-17 0 
0.02025        0.101211 8.72531e-17 0 
0.0205         0.10246 8.36873e-17 0 
0.02075        0.10371 7.92227e-17 0 
0.021          0.104959 9.01159e-17 0 
0.02125        0.106209 8.87513e-17 0 
0.0215         0.107458 9.11686e-17 0 
0.02175        0.108708 9.97064e-17 0 
0.022          0.109957 1.01312e-16 0 
0.02225        0.111207 9.71264e-17 0 
0.0225         0.112456 9.89886e-17 0 
0.02275        0.113706 9.25056e-17 0 
0.023          0.114955 9.90992e-17 0 
0.02325        0.116205 9.77633e-17 0 
0.0235         0.117455 9.74856e-17 0 
0.02375        0.118704 1.03888e-16 0 
0.024          0.119954 9.97368e-17 0 
0.02425        0.121203 9.26077e-17 0 
0.0245         0.122453 1.04322e-16 0 
0.02475        0.123702 1.1551e-16 0 
0.025          0.124952 1.03888e-16 0 
0.02525        0.126201 1.09574e-16 0 
0.0255         0.127451 1.17073e-16 0 
0.02575        0.1287 1.14611e-16 0 
0.026          0.12995 1.28983e-16 0 
0.02625        0.131199 1.29179e-16 0 
0.0265         0.132449 1.32147e-16 0 
0.02675        0.133698 1.42606e-16 0 
0.027          0.134948 1.3955e-16 0 
0.02725        0.136197 1.57094e-16 0 
0.0275         0.137447 1.61536e-16 0 
0.02775        0.138697 1.52811e-16 0 
0.028          0.139946 1.61067e-16 0 
0.02825        0.141196 1.6638e-16 0 
0.0285         0.142445 1.73703e-16 0 
0.02875        0.143695 1.54063e-16 0 
0.029          0.144944 1.73425e-16 0 
0.02925        0.146194 1.89116e-16 0 
0.0295         0.147443 1.88594e-16 0 
0.02975        0.148693 2.06524e-16 0 
0.03           0.149942 1.75715e-16 0 
0.03025        0.151192 1.73381e-16 0 
0.0305         0.152441 1.71355e-16 0 
0.03075        0.153691 1.83176e-16 0 
0.031          0.15494 1.73891e-16 0 
0.03125        0.15619 1.65514e-16 0 
0.0315         0.157439 1.69421e-16 0 
0.03175        0.158689 1.93417e-16 0 
0.032          0.159938 1.97076e-16 0 
0.03225        0.161188 2.01249e-16 0 
0.0325         0.162438 1.92966e-16 0 
0.03275        0.163687 1.8849e-16 0 
0.033          0.164937 1.90749e-16 0 
0.03325        0.166186 1.87539e-16 0 
0.0335         0.167436 1.89509e-16 0 
0.03375        0.168685 1.96395e-16 0 
0.034          0.169935 1.98337e-16 0 
0.03425        0.171184 1.8423e-16 0 
0.0345         0.172434 1.73292e-16 0 
0.03475        0.173683 1.86783e-16 0 
0.035          0.174933 1.97097e-16 0 
0.03525        0.176182 2.07637e-16 0 
0.0355         0.177432 1.98871e-16 0 
0.03575        0.178681 2.02057e-16 0 
0.036          0.179931 2.00347e-16 0 
0.03625        0.18118 2.00322e-16 0 
0.0365         0.18243 2.08363e-16 0 
0.03675        0.183679 2.18851e-16 0 
0.037          0.184929 2.28742e-16 0 
0.03725        0.186178 2.4974e-16 0 
0.0375         0.187428 2.65723e-16 0 
0.03775        0.188678 2.53371e-16 0 
0.038          0.189927 2.43153e-16 0 
0.03825        0.191177 2.3594e-16 0 
0.0385         0.192426 2.44657e-16 0 
0.03875        0.193676 2.53027e-16 0 
0.039          0.194925 2.61663e-16 0 
0.03925        0.196175 2.90651e-16 0 
0.0395         0.197424 2.81107e-16 0 
0.03975        0.198674 2.76512e-16 0 
0.04           0.199923 2.63732e-16 0 
0.04025        0.201173 2.54974e-16 0 
0.0405         0.202422 2.62699e-16 0 
0.04075        0.203672 2.59396e-16 0 
0.041          0.204921 2.7601e-16 0 
0.04125        0.206171 2.81378e-16 0 
0.0415         0.20742 2.78269e-16 0 
0.04175        0.20867 2.93973e-16 0 
0.042          0.209919 2.96953e-16 0 
0.04225        0.211169 3.16723e-16 0 
0.0425         0.212418 3.25153e-16 0 
0.04275        0.213668 2.98288e-16 0 
0.043          0.214917 2.9081e-16 0 
0.04325        0.216167 2.89787e-16 0 
0.0435         0.217417 2.89477e-16 0 
0.04375        0.218666 2.97258e-16 0 
0.044          0.219916 2.97164e-16 0 
0.04425        0.221165 3.05067e-16 0 
0.0445         0.222415 3.01477e-16 0 
0.04475        0.223664 3.24761e-16 0 
0.045          0.224914 3.41395e-16 0 
0.04525        0.226163 3.3934e-16 0 
0.0455         0.227413 3.60441e-16 0 
0.04575        0.228662 3.87949e-16 0 
0.046          0.229912 3.96524e-16 0 
0.04625        0.231161 4.15126e-16 0 
0.0465         0.232411 4.206e-16 0 
0.04675        0.23366 4.30974e-16 0 
0.047          0.23491 4.34603e-16 0 
0.04725        0.236159 4.17813e-16 0 
0.0475         0.237409 4.30358e-16 0 
0.04775        0.238658 4.50314e-16 0 
0.048          0.239908 4.46524e-16 0 
0.04825        0.241157 4.42751e-16 0 
0.0485         0.242407 4.56359e-16 0 
0.04875        0.243656 4.44194e-16 0 
0.049          0.244906 4.62422e-16 0 
0.04925        0.246155 4.54342e-16 0 
0.0495         0.247405 4.4288e-16 0 
0.04975        0.248654 4.51942e-16 0 
0.05           0.249904 4.61377e-16 0 
0.05025        0.251153 4.47341e-16 0 
0.0505         0.252403 4.55183e-16 0 
0.05075        0.253653 4.70084e-16 0 
0.051          0.254902 4.89108e-16 0 
0.05125        0.256152 4.97976e-16 0 
0.0515         0.257401 4.91869e-16 0 
0.05175        0.258651 4.97815e-16 0 
0.052          0.2599 4.9417e-16 0 
0.05225        0.26115 5.25796e-16 0 
0.0525         0.262399 5.15097e-16 0 
0.05275        0.263649 5.11539e-16 0 
0.053          0.264898 5.18823e-16 0 
0.05325        0.266148 4.95873e-16 0 
0.0535         0.267397 4.93871e-16 0 
0.05375        0.268647 5.01082e-16 0 
0.054          0.269896 5.00407e-16 0 
0.05425        0.271146 5.22148e-16 0 
0.0545         0.272395 5.13057e-16 0 
0.05475        0.273645 5.15494e-16 0 
0.055          0.274894 5.39501e-16 0 
0.05525        0.276144 5.51169e-16 0 
0.0555         0.277393 5.53646e-16 0 
0.05575        0.278643 5.65262e-16 0 
0.056          0.279892 5.44991e-16 0 
0.05625        0.281142 5.53383e-16 0 
0.0565         0.282391 5.27438e-16 0 
0.05675        0.283641 5.25019e-16 0 
0.057          0.28489 5.298e-16 0 
0.05725        0.28614 5.43897e-16 0 
0.0575         0.287389 5.69597e-16 0 
0.05775        0.288639 5.31861e-16 0 
0.058          0.289888 5.60195e-16 0 
0.05825        0.291138 5.58128e-16 0 
0.0585         0.292387 5.7759e-16 0 
0.05875        0.293637 5.72632e-16 0 
0.059          0.294886 5.67356e-16 0 
0.05925        0.296136 5.5579e-16 0 
0.0595         0.297385 5.79416e-16 0 
0.05975        0.298635 6.18893e-16 0 
0.06           0.299885 5.91975e-16 0 
0.06025        0.301134 6.32773e-16 0 
0.0605         0.302384 6.25393e-16 0 
0.06075        0.303633 6.32961e-16 0 
0.061          0.304883 6.31596e-16 0 
0.06125        0.306132 5.92922e-16 0 
0.0615         0.307382 6.04439e-16 0 
0.06175        0.308631 6.39851e-16 0 
0.062          0.309881 6.87023e-16 0 
0.06225        0.31113 6.602e-16 0 
0.0625         0.31238 6.47723e-16 0 
0.06275        0.313629 6.15023e-16 0 
0.063          0.314879 6.24518e-16 0 
0.06325        0.316128 6.09431e-16 0 
0.0635         0.317378 6.13706e-16 0 
0.06375        0.318627 6.06931e-16 0 
0.064          0.319877 6.0491e-16 0 
0.06425        0.321126 6.37486e-16 0 
0.0645         0.322376 6.57482e-16 0 
0.06475        0.323625 6.81219e-16 0 
0.065          0.324875 6.96032e-16 0 
0.06525        0.326124 6.98928e-16 0 
0.0655         0.327374 6.92255e-16 0 
0.06575        0.328623 7.03407e-16 0 
0.066          0.329873 6.75289e-16 0 
0.06625        0.331122 6.61063e-16 0 
0.0665         0.332372 6.58306e-16 0 
0.06675        0.333621 6.72483e-16 0 
0.067          0.334871 6.59485e-16 0 
0.06725        0.33612 6.97262e-16 0 
0.0675         0.33737 6.9787e-16 0 
0.06775        0.338619 6.63104e-16 0 
0.068          0.339869 6.96106e-16 0 
0.06825        0.341118 7.09502e-16 0 
0.0685         0.342368 7.26589e-16 0 
0.06875        0.343617 6.82619e-16 0 
0.069          0.344867 7.11739e-16 0 
0.06925        0.346116 7.13361e-16 0 
0.0695         0.347366 7.51519e-16 0 
0.06975        0.348615 7.43389e-16 0 
0.07           0.349865 7.53009e-16 0 
0.07025        0.351114 7.42859e-16 0 
0.0705         0.352364 7.21464e-16 0 
0.07075        0.353613 6.96777e-16 0 
0.071          0.354863 7.0898e-16 0 
0.07125        0.356112 7.02139e-16 0 
0.0715         0.357362 7.13945e-16 0 
0.07175        0.358611 7.32249e-16 0 
0.072          0.359861 7.20194e-16 0 
0.07225        0.36111 7.32706e-16 0 
0.0725         0.36236 7.47035e-16 0 
0.07275        0.363609 7.60414e-16 0 
0.073          0.364859 8.00043e-16 0 
0.07325        0.366108 8.14705e-16 0 
0.0735         0.367358 8.50545e-16 0 
0.07375        0.368607 8.12934e-16 0 
0.074          0.369857 8.54788e-16 0 
0.07425        0.371106 8.70367e-16 0 
0.0745         0.372356 8.89162e-16 0 
0.07475        0.373605 8.75055e-16 0 
0.075          0.374855 8.91288e-16 0 
0.07525        0.376104 9.23422e-16 0 
0.0755         0.377354 9.66599e-16 0 
0.07575        0.378603 9.20612e-16 0 
0.076          0.379853 9.41028e-16 0 
0.07625        0.381102 9.43056e-16 0 
0.0765         0.382352 9.03648e-16 0 
0.07675        0.383601 8.68464e-16 0 
0.077          0.384851 8.71684e-16 0 
0.07725        0.3861 8.58025e-16 0 
0.0775         0.38735 9.08488e-16 0 
0.07775        0.388599 8.93603e-16 0 
0.078          0.389849 9.17689e-16 0 
0.07825        0.391098 8.966e-16 0 
0.0785         0.392348 9.109e-16 0 
0.07875        0.393597 9.41257e-16 0 
0.079          0.394847 9.57421e-16 0 
0.07925        0.396096 9.51423e-16 0 
0.0795         0.397346 9.55079e-16 0 
0.07975        0.398595 9.12231e-16 0 
0.08           0.399845 9.09928e-16 0 
0.08025        0.401094 9.26022e-16 0 
0.0805         0.402344 9.10935e-16 0 
0.08075        0.403593 9.01844e-16 0 
0.081          0.404843 9.16475e-16 0 
0.08125        0.406092 8.92563e-16 0 
0.0815         0.407342 9.24674e-16 0 
0.08175        0.408591 8.79325e-16 0 
0.082          0.409841 9.11086e-16 0 
0.08225        0.41109 8.61761e-16 0 
0.0825         0.41234 8.94755e-16 0 
0.08275        0.413589 8.92861e-16 0 
0.083          0.414839 8.96818e-16 0 
0.08325        0.416088 9.45365e-16 0 
0.0835         0.417338 9.74342e-16 0 
0.08375        0.418587 9.74925e-16 0 
0.084          0.419837 1.00557e-15 0 
0.08425        0.421086 1.05419e-15 0 
0.0845         0.422336 1.00279e-15 0 
0.08475        0.423585 1.03226e-15 0 
0.085          0.424835 1.02808e-15 0 
0.08525        0.426084 9.99015e-16 0 
0.0855         0.427334 1.01172e-15 0 
0.08575        0.428583 1.0165e-15 0 
0.086          0.429833 1.03722e-15 0 
0.08625        0.431082 1.06877e-15 0 
0.0865         0.432332 1.05989e-15 0 
0.08675        0.433581 1.1102e-15 0 
0.087          0.434831 1.11403e-15 0 
0.08725        0.43608 1.09962e-15 0 
0.0875         0.43733 1.11497e-15 0 
0.08775        0.438579 1.11286e-15 0 
0.088          0.439829 1.09228e-15 0 
0.08825        0.441078 1.11781e-15 0 
0.0885         0.442328 1.12208e-15 0 
0.08875        0.443577 1.14588e-15 0 
0.089          0.444827 1.13331e-15 0 
0.08925        0.446076 1.12732e-15 0 
0.0895         0.447326 1.13802e-15 0 
0.08975        0.448575 1.11204e-15 0 
0.09           0.449825 1.13218e-15 0 
0.09025        0.451074 1.11923e-15 0 
0.0905         0.452324 1.12025e-15 0 
0.09075        0.453573 1.12368e-15 0 
0.091          0.454823 1.1383e-15 0 
0.09125        0.456072 1.1489e-15 0 
0.0915         0.457322 1.12869e-15 0 
0.09175        0.458571 1.16208e-15 0 
0.092          0.459821 1.15599e-15 0 
0.09225        0.46107 1.17223e-15 0 
0.0925         0.46232 1.14244e-15 0 
0.09275        0.463569 1.12931e-15 0 
0.093          0.464819 1.15622e-15 0 
0.09325        0.466068 1.13596e-15 0 
0.0935         0.467318 1.12723e-15 0 
0.09375        0.468567 1.1723e-15 0 
0.094          0.469817 1.19384e-15 0 
0.09425        0.471066 1.18508e-15 0 
0.0945         0.472316 1.15863e-15 0 
0.09475        0.473565 1.14878e-15 0 
0.095          0.474815 1.16003e-15 0 
0.09525        0.476064 1.1717e-15 0 
0.0955         0.477314 1.16273e-15 0 
0.09575        0.478563 1.19389e-15 0 
0.096          0.479813 1.17682e-15 0 
0.09625        0.481062 1.19437e-15 0 
0.0965         0.482312 1.2237e-15 0 
0.09675        0.483561 1.23022e-15 0 
0.097          0.484811 1.24341e-15 0 
0.09725        0.48606 1.26373e-15 0 
0.0975         0.48731 1.30942e-15 0 
0.09775        0.488559 1.30664e-15 0 
0.098          0.489809 1.26618e-15 0 
0.09825        0.491058 1.23491e-15 0 
0.0985         0.492308 1.23673e-15 0 
0.09875        0.493557 1.2396e-15 0 
0.099          0.494806 1.26175e-15 0 
0.09925        0.496056 1.29717e-15 0 
0.0995         0.497305 1.28258e-15 0 
0.09975        0.498555 1.29952e-15 0 
0.1            0.499804 1.26651e-15 0 
0.10025        0.501054 1.28432e-15 0 
0.1005         0.502303 1.24876e-15 0 
0.10075        0.503553 1.33562e-15 0 
0.101          0.504802 1.30908e-15 0 
0.10125        0.506052 1.34878e-15 0 
0.1015         0.507301 1.40806e-15 0 
0.10175        0.508551 1.38905e-15 0 
0.102          0.5098 1.44617e-15 0 
0.10225        0.51105 1.46133e-15 0 
0.1025         0.512299 1.5463e-15 0 
0.10275        0.513549 1.50159e-15 0 
0.103          0.514798 1.52497e-15 0 
0.10325        0.516048 1.53045e-15 0 
0.1035         0.517297 1.59298e-15 0 
0.10375        0.518547 1.65222e-15 0 
0.104          0.519796 1.68643e-15 0 
0.10425        0.521046 1.61942e-15 0 
0.1045         0.522295 1.65186e-15 0 
0.10475        0.523545 1.64044e-15 0 
0.105          0.524794 1.63734e-15 0 
0.10525        0.526044 1.59144e-15 0 
0.1055         0.527293 1.57493e-15 0 
0.10575        0.528543 1.58382e-15 0 
0.106          0.529792 1.55093e-15 0 
0.10625        0.531042 1.54013e-15 0 
0.1065         0.532291 1.5959e-15 0 
0.10675        0.533541 1.5895e-15 0 
0.107          0.53479 1.65603e-15 0 
0.10725        0.536039 1.72567e-15 0 
0.1075         0.537289 1.70768e-15 0 
0.10775        0.538538 1.76838e-15 0 
0.108          0.539788 1.7356e-15 0 
0.10825        0.541037 1.7318e-15 0 
0.1085         0.542287 1.69106e-15 0 
0.10875        0.543536 1.71636e-15 0 
0.109          0.544786 1.73022e-15 0 
0.10925        0.546035 1.63488e-15 0 
0.1095         0.547285 1.64896e-15 0 
0.10975        0.548534 1.66147e-15 0 
0.11           0.549784 1.64353e-15 0 
0.11025        0.551033 1.66506e-15 0 
0.1105         0.552283 1.69837e-15 0 
0.11075        0.553532 1.73879e-15 0 
0.111          0.554782 1.68496e-15 0 
0.11125        0.556031 1.69234e-15 0 
0.1115         0.557281 1.68658e-15 0 
0.11175        0.55853 1.65263e-15 0 
0.112          0.55978 1.70518e-15 0 
0.11225        0.561029 1.6839e-15 0 
0.1125         0.562278 1.66568e-15 0 
0.11275        0.563528 1.66325e-15 0 
0.113          0.564777 1.67001e-15 0 
0.11325        0.566027 1.69491e-15 0 
0.1135         0.567276 1.70916e-15 0 
0.11375        0.568526 1.72016e-15 0 
0.114          0.569775 1.71474e-15 0 
0.11425        0.571025 1.72511e-15 0 
0.1145         0.572274 1.81563e-15 0 
0.11475        0.573524 1.76077e-15 0 
0.115          0.574773 1.83767e-15 0 
0.11525        0.576023 1.95424e-15 0 
0.1155         0.577272 1.92925e-15 0 
0.11575        0.578522 1.97596e-15 0 
0.116          0.579771 1.97081e-15 0 
0.11625        0.581021 2.05362e-15 0 
0.1165         0.58227 1.99394e-15 0 
0.11675        0.58352 1.92785e-15 0 
0.117          0.584769 2.0034e-15 0 
0.11725        0.586018 1.95886e-15 0 
0.1175         0.587268 1.95084e-15 0 
0.11775        0.588517 1.98863e-15 0 
0.118          0.589767 2.07901e-15 0 
0.11825        0.591016 2.06234e-15 0 
0.1185         0.592266 2.06047e-15 0 
0.11875        0.593515 2.08413e-15 0 
0.119          0.594765 2.07362e-15 0 
0.11925        0.596014 2.09449e-15 0 
0.1195         0.597264 2.02648e-15 0 
0.11975        0.598513 2.03499e-15 0 
0.12           0.599763 1.98428e-15 0 
0.12025        0.601012 2.04112e-15 0 
0.1205         0.602261 2.06128e-15 0 
0.12075        0.603511 2.02417e-15 0 
0.121          0.60476 1.98859e-15 0 
0.12125        0.60601 2.04575e-15 0 
0.1215         0.607259 2.00204e-15 0 
0.12175        0.608509 2.00143e-15 0 
0.122          0.609758 1.97858e-15 0 
0.12225        0.611008 1.99915e-15 0 
0.1225         0.612257 1.97686e-15 0 
0.12275        0.613507 2.02906e-15 0 
0.123          0.614756 2.02861e-15 0 
0.12325        0.616006 1.98073e-15 0 
0.1235         0.617255 2.03931e-15 0 
0.12375        0.618504 1.96995e-15 0 
0.124          0.619754 1.98558e-15 0 
0.12425        0.621003 2.04778e-15 0 
0.1245         0.622253 2.01662e-15 0 
0.12475        0.623502 2.02693e-15 0 
0.125          0.624752 2.05755e-15 0 
0.12525        0.626001 2.06903e-15 0 
0.1255         0.627251 2.10422e-15 0 
0.12575        0.6285 2.11335e-15 0 
0.126          0.62975 2.13217e-15 0 
0.12625        0.630999 2.1574e-15 0 
0.1265         0.632248 2.12062e-15 0 
0.12675        0.633498 2.14897e-15 0 
0.127          0.634747 2.10231e-15 0 
0.12725        0.635997 2.08783e-15 0 
0.1275         0.637246 2.04954e-15 0 
0.12775        0.638496 2.09285e-15 0 
0.128          0.639745 2.05745e-15 0 
0.12825        0.640995 2.09149e-15 0 
0.1285         0.642244 2.16002e-15 0 
0.12875        0.643493 2.19485e-15 0 
0.129          0.644743 2.13164e-15 0 
0.12925        0.645992 2.13211e-15 0 
0.1295         0.647242 2.16198e-15 0 
0.12975        0.648491 2.18198e-15 0 
0.13           0.649741 2.18569e-15 0 
0.13025        0.65099 2.20282e-15 0 
0.1305         0.65224 2.21442e-15 0 
0.13075        0.653489 2.24074e-15 0 
0.131          0.654738 2.22686e-15 0 
0.13125        0.655988 2.20724e-15 0 
0.1315         0.657237 2.2437e-15 0 
0.13175        0.658487 2.25761e-15 0 
0.132          0.659736 2.29117e-15 0 
0.13225        0.660986 2.24394e-15 0 
0.1325         0.662235 2.29231e-15 0 
0.13275        0.663484 2.3365e-15 0 
0.133          0.664734 2.30925e-15 0 
0.13325        0.665983 2.29828e-15 0 
0.1335         0.667233 2.26365e-15 0 
0.13375        0.668482 2.26799e-15 0 
0.134          0.669732 2.23977e-15 0 
0.13425        0.670981 2.30615e-15 0 
0.1345         0.67223 2.23279e-15 0 
0.13475        0.67348 2.25415e-15 0 
0.135          0.674729 2.28491e-15 0 
0.13525        0.675979 2.29344e-15 0 
0.1355         0.677228 2.26251e-15 0 
0.13575        0.678478 2.18935e-15 0 
0.136          0.679727 2.1538e-15 0 
0.13625        0.680976 2.20594e-15 0 
0.1365         0.682226 2.31868e-15 0 
0.13675        0.683475 2.3431e-15 0 
0.137          0.684725 2.3604e-15 0 
0.13725        0.685974 2.35195e-15 0 
0.1375         0.687223 2.43625e-15 0 
0.13775        0.688473 2.4182e-15 0 
0.138          0.689722 2.40972e-15 0 
0.13825        0.690972 2.44602e-15 0 
0.1385         0.692221 2.42298e-15 0 
0.13875        0.693471 2.44241e-15 0 
0.139          0.69472 2.41852e-15 0 
0.13925        0.695969 2.43394e-15 0 
0.1395         0.697219 2.45441e-15 0 
0.13975        0.698468 2.47021e-15 0 
0.14           0.699718 2.47307e-15 0 
0.14025        0.700967 2.42258e-15 0 
0.1405         0.702216 2.41642e-15 0 
0.14075        0.703466 2.417e-15 0 
0.141          0.704715 2.40441e-15 0 
0.14125        0.705965 2.39573e-15 0 
0.1415         0.707214 2.47835e-15 0 
0.14175        0.708463 2.47152e-15 0 
0.142          0.709713 2.51175e-15 0 
0.14225        0.710962 2.39354e-15 0 
0.1425         0.712211 2.43629e-15 0 
0.14275        0.713461 2.43771e-15 0 
0.143          0.71471 2.39497e-15 0 
0.14325        0.71596 2.4368e-15 0 
0.1435         0.717209 2.55944e-15 0 
0.14375        0.718458 2.54683e-15 0 
0.144          0.719708 2.56464e-15 0 
0.14425        0.720957 2.49983e-15 0 
0.1445         0.722207 2.46733e-15 0 
0.14475        0.723456 2.46452e-15 0 
0.145          0.724705 2.43387e-15 0 
0.14525        0.725955 2.53797e-15 0 
0.1455         0.727204 2.518e-15 0 
0.14575        0.728453 2.47492e-15 0 
0.146          0.729703 2.53981e-15 0 
0.14625        0.730952 2.54657e-15 0 
0.1465         0.732202 2.49798e-15 0 
0.14675        0.733451 2.42224e-15 0 
0.147          0.7347 2.47317e-15 0 
0.14725        0.73595 2.4863e-15 0 
0.1475         0.737199 2.50331e-15 0 
0.14775        0.738448 2.53344e-15 0 
0.148          0.739698 2.55344e-15 0 
0.14825        0.740947 2.50818e-15 0 
0.1485         0.742196 2.60162e-15 0 
0.14875        0.743446 2.64263e-15 0 
0.149          0.744695 2.6694e-15 0 
0.14925        0.745944 2.64914e-15 0 
0.1495         0.747194 2.65641e-15 0 
0.14975        0.748443 2.61718e-15 0 
0.15           0.749692 2.64475e-15 0 
0.15025        0.750942 2.56342e-15 0 
0.1505         0.752191 2.60628e-15 0 
0.15075        0.75344 2.60776e-15 0 
0.151          0.75469 2.58736e-15 0 
0.15125        0.755939 2.62787e-15 0 
0.1515         0.757188 2.64198e-15 0 
0.15175        0.758438 2.63456e-15 0 
0.152          0.759687 2.67611e-15 0 
0.15225        0.760936 2.7059e-15 0 
0.1525         0.762186 2.75624e-15 0 
0.15275        0.763435 2.71645e-15 0 
0.153          0.764684 2.76907e-15 0 
0.15325        0.765934 2.80328e-15 0 
0.1535         0.767183 2.81184e-15 0 
0.15375        0.768432 2.83006e-15 0 
0.154          0.769682 2.84541e-15 0 
0.15425        0.770931 2.80847e-15 0 
0.1545         0.77218 2.81417e-15 0 
0.15475        0.77343 2.78009e-15 0 
0.155          0.774679 2.8613e-15 0 
0.15525        0.775928 2.85222e-15 0 
0.1555         0.777177 2.8253e-15 0 
0.15575        0.778427 2.82374e-15 0 
0.156          0.779676 2.88266e-15 0 
0.15625        0.780925 2.92237e-15 0 
0.1565         0.782175 2.87978e-15 0 
0.15675        0.783424 2.84068e-15 0 
0.157          0.784673 2.9048e-15 0 
0.15725        0.785922 2.93414e-15 0 
0.1575         0.787172 2.89745e-15 0 
0.15775        0.788421 2.96371e-15 0 
0.158          0.78967 2.88805e-15 0 
0.15825        0.79092 2.94613e-15 0 
0.1585         0.792169 3.00923e-15 0 
0.15875        0.793418 3.01859e-15 0 
0.159          0.794667 3.0438e-15 0 
0.15925        0.795917 2.99327e-15 0 
0.1595         0.797166 2.97488e-15 0 
0.15975        0.798415 2.9993e-15 0 
0.16           0.799664 3.0236e-15 0 
0.16025        0.800914 2.98351e-15 0 
0.1605         0.802163 2.99982e-15 0 
0.16075        0.803412 3.02771e-15 0 
0.161          0.804661 3.02687e-15 0 
0.16125        0.805911 2.99811e-15 0 
0.1615         0.80716 3.00448e-15 0 
0.16175        0.808409 2.99308e-15 0 
0.162          0.809658 3.04695e-15 0 
0.16225        0.810908 3.10113e-15 0 
0.1625         0.812157 3.11521e-15 0 
0.16275        0.813406 3.06601e-15 0 
0.163          0.814655 3.04929e-15 0 
0.16325        0.815904 3.0205e-15 0 
0.1635         0.817154 3.03137e-15 0 
0.16375        0.818403 2.99371e-15 0 
0.164          0.819652 3.01507e-15 0 
0.16425        0.820901 2.98706e-15 0 
0.1645         0.82215 2.93351e-15 0 
0.16475        0.8234 3.01736e-15 0 
0.165          0.824649 3.02256e-15 0 
0.16525        0.825898 3.01177e-15 0 
0.1655         0.827147 3.03865e-15 0 
0.16575        0.828396 3.03693e-15 0 
0.166          0.829646 2.9982e-15 0 
0.16625        0.830895 3.01068e-15 0 
0.1665         0.832144 3.03823e-15 0 
0.16675        0.833393 3.18476e-15 0 
0.167          0.834642 3.19035e-15 0 
0.16725        0.835891 3.2429e-15 0 
0.1675         0.837141 3.22686e-15 0 
0.16775        0.83839 3.23527e-15 0 
0.168          0.839639 3.21749e-15 0 
0.16825        0.840888 3.21563e-15 0 
0.1685         0.842137 3.25122e-15 0 
0.16875        0.843386 3.18368e-15 0 
0.169          0.844635 3.13165e-15 0 
0.16925        0.845885 3.09202e-15 0 
0.1695         0.847134 3.08686e-15 0 
0.16975        0.848383 3.09824e-15 0 
0.17           0.849632 3.13625e-15 0 
0.17025        0.850881 3.06518e-15 0 
0.1705         0.85213 3.06679e-15 0 
0.17075        0.853379 3.08051e-15 0 
0.171          0.854628 3.0872e-15 0 
0.17125        0.855877 3.09609e-15 0 
0.1715         0.857127 3.00457e-15 0 
0.17175        0.858376 3.02682e-15 0 
0.172          0.859625 3.08542e-15 0 
0.17225        0.860874 3.16372e-15 0 
0.1725         0.862123 3.16799e-15 0 
0.17275        0.863372 3.15471e-15 0 
0.173          0.864621 3.17028e-15 0 
0.17325        0.86587 3.19522e-15 0 
0.1735         0.867119 3.24616e-15 0 
0.17375        0.868368 3.28298e-15 0 
0.174          0.869617 3.1949e-15 0 
0.17425        0.870866 3.22572e-15 0 
0.1745         0.872115 3.3216e-15 0 
0.17475        0.873364 3.34714e-15 0 
0.175          0.874614 3.38408e-15 0 
0.17525        0.875863 3.40498e-15 0 
0.1755         0.877112 3.31121e-15 0 
0.17575        0.878361 3.36275e-15 0 
0.176          0.87961 3.32595e-15 0 
0.17625        0.880859 3.35868e-15 0 
0.1765         0.882108 3.31177e-15 0 
0.17675        0.883357 3.24159e-15 0 
0.177          0.884606 3.25275e-15 0 
0.17725        0.885855 3.27947e-15 0 
0.1775         0.887104 3.26887e-15 0 
0.17775        0.888353 3.22775e-15 0 
0.178          0.889602 3.25604e-15 0 
0.17825        0.890851 3.25387e-15 0 
0.1785         0.8921 3.28002e-15 0 
0.17875        0.893349 3.31447e-15 0 
0.179          0.894597 3.24214e-15 0 
0.17925        0.895846 3.22546e-15 0 
0.1795         0.897095 3.22342e-15 0 
0.17975        0.898344 3.25614e-15 0 
0.18           0.899593 3.22008e-15 0 
0.18025        0.900842 3.26998e-15 0 
0.1805         0.902091 3.28001e-15 0 
0.18075        0.90334 3.34898e-15 0 
0.181          0.904589 3.39184e-15 0 
0.18125        0.905838 3.35819e-15 0 
0.1815         0.907087 3.41754e-15 0 
0.18175        0.908336 3.49489e-15 0 
0.182          0.909585 3.53519e-15 0 
0.18225        0.910833 3.54657e-15 0 
0.1825         0.912082 3.56205e-15 0 
0.18275        0.913331 3.54199e-15 0 
0.183          0.91458 3.59056e-15 0 
0.18325        0.915829 3.59227e-15 0 
0.1835         0.917078 3.63734e-15 0 
0.18375        0.918327 3.67166e-15 0 
0.184          0.919576 3.62475e-15 0 
0.18425        0.920824 3.6791e-15 0 
0.1845         0.922073 3.63959e-15 0 
0.18475        0.923322 3.53281e-15 0 
0.185          0.924571 3.48015e-15 0 
0.18525        0.92582 3.44631e-15 0 
0.1855         0.927069 3.45794e-15 0 
0.18575        0.928317 3.43156e-15 0 
0.186          0.929566 3.43228e-15 0 
0.18625        0.930815 3.3893e-15 0 
0.1865         0.932064 3.4439e-15 0 
0.18675        0.933313 3.52699e-15 0 
0.187          0.934561 3.53664e-15 0 
0.18725        0.93581 3.57258e-15 0 
0.1875         0.937059 3.54644e-15 0 
0.18775        0.938308 3.49837e-15 0 
0.188          0.939556 3.55554e-15 0 
0.18825        0.940805 3.57046e-15 0 
0.1885         0.942054 3.60102e-15 0 
0.18875        0.943303 3.57367e-15 0 
0.189          0.944551 3.55995e-15 0 
0.18925        0.9458 3.64845e-15 0 
0.1895         0.947049 3.6946e-15 0 
0.18975        0.948297 3.67717e-15 0 
0.19           0.949546 3.73729e-15 0 
0.19025        0.950795 3.68876e-15 0 
0.1905         0.952044 3.65116e-15 0 
0.19075        0.953292 3.64076e-15 0 
0.191          0.954541 3.70056e-15 0 
0.19125        0.95579 3.74631e-15 0 
0.1915         0.957038 3.75168e-15 0 
0.19175        0.958287 3.77461e-15 0 
0.192          0.959536 3.81315e-15 0 
0.19225        0.960784 3.85574e-15 0 