# Probe 0 (0.03 0 0.0073)
# Time        0            
0.6001        -0.29008     
0.6002        -0.290077    
0.6003        -0.290071    
0.6004        -0.290067    
0.6005        -0.290055    
0.6006        -0.290052    
0.6007        -0.290044    
0.6008        -0.290042    
0.6009        -0.290033    
0.601         -0.29003     
0.6011        -0.290017    
0.6012        -0.290016    
0.6013        -0.290007    
0.6014        -0.290005    
0.6015        -0.289996    
0.6016        -0.289993    
0.6017        -0.28998     
0.6018        -0.289978    
0.6019        -0.289969    
0.602         -0.289968    
0.6021        -0.289959    
0.6022        -0.289957    
0.6023        -0.289943    
0.6024        -0.289941    
0.6025        -0.289933    
0.6026        -0.289932    
0.6027        -0.289922    
0.6028        -0.289919    
0.6029        -0.289906    
0.603         -0.289904    
0.6031        -0.289896    
0.6032        -0.289895    
0.6033        -0.289885    
0.6034        -0.289883    
0.6035        -0.289869    
0.6036        -0.289868    
0.6037        -0.289859    
0.6038        -0.289858    
0.6039        -0.289849    
0.604         -0.289846    
0.6041        -0.289833    
0.6042        -0.289831    
0.6043        -0.289823    
0.6044        -0.289822    
0.6045        -0.289812    
0.6046        -0.28981     
0.6047        -0.289796    
0.6048        -0.289795    
0.6049        -0.289786    
0.605         -0.289785    
0.6051        -0.289776    
0.6052        -0.289773    
0.6053        -0.28976     
0.6054        -0.289759    
0.6055        -0.28975     
0.6056        -0.289749    
0.6057        -0.28974     
0.6058        -0.289737    
0.6059        -0.289724    
0.606         -0.289723    
0.6061        -0.289714    
0.6062        -0.289713    
0.6063        -0.289704    
0.6064        -0.289701    
0.6065        -0.289688    
0.6066        -0.289687    
0.6067        -0.289678    
0.6068        -0.289677    
0.6069        -0.289668    
0.607         -0.289666    
0.6071        -0.289653    
0.6072        -0.289651    
0.6073        -0.289643    
0.6074        -0.289642    
0.6075        -0.289633    
0.6076        -0.28963     
0.6077        -0.289617    
0.6078        -0.289616    
0.6079        -0.289607    
0.608         -0.289606    
0.6081        -0.289597    
0.6082        -0.289595    
0.6083        -0.289582    
0.6084        -0.28958     
0.6085        -0.289572    
0.6086        -0.289571    
0.6087        -0.289562    
0.6088        -0.28956     
0.6089        -0.289547    
0.609         -0.289545    
0.6091        -0.289537    
0.6092        -0.289536    
0.6093        -0.289527    
0.6094        -0.289525    
0.6095        -0.289512    
0.6096        -0.28951     
0.6097        -0.289502    
0.6098        -0.289501    
0.6099        -0.289492    
0.61          -0.28949     
0.6101        -0.289477    
0.6102        -0.289475    
0.6103        -0.289467    
0.6104        -0.289466    
0.6105        -0.289457    
0.6106        -0.289455    
0.6107        -0.289442    
0.6108        -0.289441    
0.6109        -0.289433    
0.611         -0.289432    
0.6111        -0.289423    
0.6112        -0.28942     
0.6113        -0.289407    
0.6114        -0.289406    
0.6115        -0.289398    
0.6116        -0.289397    
0.6117        -0.289388    
0.6118        -0.289386    
0.6119        -0.289373    
0.612         -0.289372    
0.6121        -0.289364    
0.6122        -0.289363    
0.6123        -0.289354    
0.6124        -0.289352    
0.6125        -0.289339    
0.6126        -0.289338    
0.6127        -0.28933     
0.6128        -0.289329    
0.6129        -0.28932     
0.613         -0.289318    
0.6131        -0.289305    
0.6132        -0.289304    
0.6133        -0.289296    
0.6134        -0.289295    
0.6135        -0.289286    
0.6136        -0.289284    
0.6137        -0.289271    
0.6138        -0.28927     
0.6139        -0.289262    
0.614         -0.289261    
0.6141        -0.289252    
0.6142        -0.28925     
0.6143        -0.289237    
0.6144        -0.289236    
0.6145        -0.289228    
0.6146        -0.289228    
0.6147        -0.289219    
0.6148        -0.289216    
0.6149        -0.289204    
0.615         -0.289203    
0.6151        -0.289195    
0.6152        -0.289194    
0.6153        -0.289185    
0.6154        -0.289183    
0.6155        -0.28917     
0.6156        -0.289169    
0.6157        -0.289161    
0.6158        -0.289161    
0.6159        -0.289152    
0.616         -0.28915     
0.6161        -0.289137    
0.6162        -0.289136    
0.6163        -0.289128    
0.6164        -0.289128    
0.6165        -0.289119    
0.6166        -0.289117    
0.6167        -0.289104    
0.6168        -0.289103    
0.6169        -0.289095    
0.617         -0.289095    
0.6171        -0.289086    
0.6172        -0.289084    
0.6173        -0.289071    
0.6174        -0.28907     
0.6175        -0.289062    
0.6176        -0.289062    
0.6177        -0.289053    
0.6178        -0.289051    
0.6179        -0.289038    
0.618         -0.289037    
0.6181        -0.28903     
0.6182        -0.289029    
0.6183        -0.28902     
0.6184        -0.289018    
0.6185        -0.289006    
0.6186        -0.289005    
0.6187        -0.288997    
0.6188        -0.288997    
0.6189        -0.288988    
0.619         -0.288984    
0.6191        -0.288976    
0.6192        -0.288974    
0.6193        -0.288966    
0.6194        -0.288962    
0.6195        -0.288955    
0.6196        -0.288952    
0.6197        -0.288944    
0.6198        -0.288943    
0.6199        -0.288929    
0.62          -0.288929    
0.6201        -0.288922    
0.6202        -0.288921    
0.6203        -0.288913    
0.6204        -0.288911    
0.6205        -0.288899    
0.6206        -0.288898    
0.6207        -0.28889     
0.6208        -0.28889     
0.6209        -0.288881    
0.621         -0.288876    
0.6211        -0.288868    
0.6212        -0.288867    
0.6213        -0.28886     
0.6214        -0.288856    
0.6215        -0.28885     
0.6216        -0.288841    
0.6217        -0.288834    
0.6218        -0.288838    
0.6219        -0.288826    
0.622         -0.288825    
0.6221        -0.288817    
0.6222        -0.288813    
0.6223        -0.288806    
0.6224        -0.288803    
0.6225        -0.288796    
0.6226        -0.288792    
0.6227        -0.288785    
0.6228        -0.288782    
0.6229        -0.288775    
0.623         -0.28877     
0.6231        -0.288764    
0.6232        -0.288761    
0.6233        -0.288754    
0.6234        -0.288751    
0.6235        -0.288744    
0.6236        -0.288737    
0.6237        -0.288731    
0.6238        -0.288729    
0.6239        -0.288724    
0.624         -0.288721    
0.6241        -0.288713    
0.6242        -0.288707    
0.6243        -0.288701    
0.6244        -0.288699    
0.6245        -0.288693    
0.6246        -0.28869     
0.6247        -0.288683    
0.6248        -0.288674    
0.6249        -0.288668    
0.625         -0.288671    
0.6251        -0.28866     
0.6252        -0.288659    
0.6253        -0.288651    
0.6254        -0.288646    
0.6255        -0.28864     
0.6256        -0.288637    
0.6257        -0.288631    
0.6258        -0.288627    
0.6259        -0.288621    
0.626         -0.288614    
0.6261        -0.288608    
0.6262        -0.288606    
0.6263        -0.2886      
0.6264        -0.288598    
0.6265        -0.288591    
0.6266        -0.288585    
0.6267        -0.288578    
0.6268        -0.288576    
0.6269        -0.28857     
0.627         -0.288568    
0.6271        -0.288556    
0.6272        -0.288555    
0.6273        -0.288548    
0.6274        -0.288548    
0.6275        -0.28854     
0.6276        -0.288537    
0.6277        -0.288526    
0.6278        -0.288525    
0.6279        -0.288518    
0.628         -0.288517    
0.6281        -0.28851     
0.6282        -0.288507    
0.6283        -0.288496    
0.6284        -0.288494    
0.6285        -0.288488    
0.6286        -0.288487    
0.6287        -0.28848     
0.6288        -0.288477    
0.6289        -0.288466    
0.629         -0.288465    
0.6291        -0.288458    
0.6292        -0.288458    
0.6293        -0.28845     
0.6294        -0.288447    
0.6295        -0.288436    
0.6296        -0.288435    
0.6297        -0.288429    
0.6298        -0.288428    
0.6299        -0.28842     
0.63          -0.288417    
0.6301        -0.288407    
0.6302        -0.288405    
0.6303        -0.288399    
0.6304        -0.288398    
0.6305        -0.288391    
0.6306        -0.288388    
0.6307        -0.288377    
0.6308        -0.288376    
0.6309        -0.28837     
0.631         -0.288369    
0.6311        -0.288362    
0.6312        -0.288359    
0.6313        -0.288353    
0.6314        -0.288343    
0.6315        -0.288341    
0.6316        -0.28834     
0.6317        -0.288332    
0.6318        -0.288326    
0.6319        -0.28832     
0.632         -0.288318    
0.6321        -0.288313    
0.6322        -0.28831     
0.6323        -0.288304    
0.6324        -0.288295    
0.6325        -0.28829     
0.6326        -0.288293    
0.6327        -0.288283    
0.6328        -0.288282    
0.6329        -0.28827     
0.633         -0.28827     
0.6331        -0.288263    
0.6332        -0.288263    
0.6333        -0.288255    
0.6334        -0.28825     
0.6335        -0.288243    
0.6336        -0.288242    
0.6337        -0.288236    
0.6338        -0.288233    
0.6339        -0.288227    
0.634         -0.288218    
0.6341        -0.288213    
0.6342        -0.288216    
0.6343        -0.288209    
0.6344        -0.2882      
0.6345        -0.288195    
0.6346        -0.288194    
0.6347        -0.288188    
0.6348        -0.288186    
0.6349        -0.288179    
0.635         -0.288173    
0.6351        -0.288168    
0.6352        -0.288166    
0.6353        -0.28816     
0.6354        -0.288158    
0.6355        -0.288147    
0.6356        -0.288146    
0.6357        -0.288139    
0.6358        -0.288139    
0.6359        -0.288132    
0.636         -0.288131    
0.6361        -0.288117    
0.6362        -0.288117    
0.6363        -0.288115    
0.6364        -0.28811     
0.6365        -0.288104    
0.6366        -0.288097    
0.6367        -0.288092    
0.6368        -0.28809     
0.6369        -0.288085    
0.637         -0.288083    
0.6371        -0.288076    
0.6372        -0.28807     
0.6373        -0.288064    
0.6374        -0.288063    
0.6375        -0.288058    
0.6376        -0.288055    
0.6377        -0.28805     
0.6378        -0.28804     
0.6379        -0.288035    
0.638         -0.288038    
0.6381        -0.288029    
0.6382        -0.288027    
0.6383        -0.288017    
0.6384        -0.288016    
0.6385        -0.28801     
0.6386        -0.288009    
0.6387        -0.288003    
0.6388        -0.287996    
0.6389        -0.287991    
0.639         -0.287989    
0.6391        -0.287985    
0.6392        -0.287981    
0.6393        -0.287977    
0.6394        -0.287965    
0.6395        -0.287962    
0.6396        -0.287965    
0.6397        -0.287956    
0.6398        -0.287953    
0.6399        -0.287948    
0.64          -0.287941    
0.6401        -0.287938    
0.6402        -0.287934    
0.6403        -0.287931    
0.6404        -0.287926    
0.6405        -0.287923    
0.6406        -0.287911    
0.6407        -0.287909    
0.6408        -0.28791     
0.6409        -0.287903    
0.641         -0.287899    
0.6411        -0.287894    
0.6412        -0.28789     
0.6413        -0.287881    
0.6414        -0.287877    
0.6415        -0.287875    
0.6416        -0.287871    
0.6417        -0.287869    
0.6418        -0.287864    
0.6419        -0.287856    
0.642         -0.287852    
0.6421        -0.287849    
0.6422        -0.287845    
0.6423        -0.287842    
0.6424        -0.287832    
0.6425        -0.28783     
0.6426        -0.287825    
0.6427        -0.287824    
0.6428        -0.287819    
0.6429        -0.287817    
0.643         -0.287805    
0.6431        -0.287803    
0.6432        -0.287799    
0.6433        -0.287797    
0.6434        -0.287792    
0.6435        -0.28779     
0.6436        -0.287779    
0.6437        -0.287777    
0.6438        -0.287773    
0.6439        -0.287771    
0.644         -0.287766    
0.6441        -0.287764    
0.6442        -0.287752    
0.6443        -0.28775     
0.6444        -0.287749    
0.6445        -0.287748    
0.6446        -0.287734    
0.6447        -0.287733    
0.6448        -0.287732    
0.6449        -0.287726    
0.645         -0.287722    
0.6451        -0.287718    
0.6452        -0.287714    
0.6453        -0.287705    
0.6454        -0.287701    
0.6455        -0.2877      
0.6456        -0.287695    
0.6457        -0.287694    
0.6458        -0.287688    
0.6459        -0.287681    
0.646         -0.287677    
0.6461        -0.287674    
0.6462        -0.287671    
0.6463        -0.287667    
0.6464        -0.287659    
0.6465        -0.287656    
0.6466        -0.287652    
0.6467        -0.28765     
0.6468        -0.287645    
0.6469        -0.287639    
0.647         -0.287634    
0.6471        -0.287632    
0.6472        -0.287628    
0.6473        -0.287625    
0.6474        -0.287615    
0.6475        -0.287613    
0.6476        -0.287609    
0.6477        -0.287607    
0.6478        -0.287602    
0.6479        -0.287601    
0.648         -0.287589    
0.6481        -0.287587    
0.6482        -0.287586    
0.6483        -0.287585    
0.6484        -0.287571    
0.6485        -0.28757     
0.6486        -0.28757     
0.6487        -0.287568    
0.6488        -0.287554    
0.6489        -0.287553    
0.649         -0.287554    
0.6491        -0.287547    
0.6492        -0.287543    
0.6493        -0.28754     
0.6494        -0.287532    
0.6495        -0.287529    
0.6496        -0.287525    
0.6497        -0.287524    
0.6498        -0.287518    
0.6499        -0.287517    
0.65          -0.287504    
0.6501        -0.287503    
0.6502        -0.287504    
0.6503        -0.287497    
0.6504        -0.287494    
0.6505        -0.28749     
0.6506        -0.287486    
0.6507        -0.287476    
0.6508        -0.287475    
0.6509        -0.287473    
0.651         -0.287469    
0.6511        -0.287466    
0.6512        -0.287457    
0.6513        -0.287455    
0.6514        -0.287451    
0.6515        -0.287449    
0.6516        -0.287444    
0.6517        -0.287437    
0.6518        -0.287434    
0.6519        -0.287431    
0.652         -0.287428    
0.6521        -0.287425    
0.6522        -0.287417    
0.6523        -0.287414    
0.6524        -0.287411    
0.6525        -0.287409    
0.6526        -0.287404    
0.6527        -0.287402    
0.6528        -0.287389    
0.6529        -0.287391    
0.653         -0.287387    
0.6531        -0.287384    
0.6532        -0.287379    
0.6533        -0.287372    
0.6534        -0.287368    
0.6535        -0.287367    
0.6536        -0.287362    
0.6537        -0.28736     
0.6538        -0.287356    
0.6539        -0.287348    
0.654         -0.287345    
0.6541        -0.287342    
0.6542        -0.287339    
0.6543        -0.287336    
0.6544        -0.287333    
0.6545        -0.287322    
0.6546        -0.28732     
0.6547        -0.287321    
0.6548        -0.287315    
0.6549        -0.287312    
0.655         -0.287304    
0.6551        -0.287302    
0.6552        -0.287298    
0.6553        -0.287296    
0.6554        -0.287292    
0.6555        -0.287285    
0.6556        -0.287281    
0.6557        -0.287279    
0.6558        -0.287276    
0.6559        -0.287273    
0.656         -0.287263    
0.6561        -0.287262    
0.6562        -0.287258    
0.6563        -0.287257    
0.6564        -0.287252    
0.6565        -0.28725     
0.6566        -0.287238    
0.6567        -0.287237    
0.6568        -0.287238    
0.6569        -0.287236    
0.657         -0.287222    
0.6571        -0.287221    
0.6572        -0.287223    
0.6573        -0.287216    
0.6574        -0.287213    
0.6575        -0.287209    
0.6576        -0.287202    
0.6577        -0.2872      
0.6578        -0.287196    
0.6579        -0.287194    
0.658         -0.28719     
0.6581        -0.287188    
0.6582        -0.287176    
0.6583        -0.287175    
0.6584        -0.287177    
0.6585        -0.28717     
0.6586        -0.287166    
0.6587        -0.287163    
0.6588        -0.287156    
0.6589        -0.287154    
0.659         -0.28715     
0.6591        -0.287148    
0.6592        -0.287144    
0.6593        -0.287142    
0.6594        -0.28713     
0.6595        -0.287131    
0.6596        -0.287128    
0.6597        -0.287125    
0.6598        -0.287121    
0.6599        -0.287114    
0.66          -0.28711     
0.6601        -0.287109    
0.6602        -0.287105    
0.6603        -0.287103    
0.6604        -0.287098    
0.6605        -0.287091    
0.6606        -0.287088    
0.6607        -0.287085    
0.6608        -0.287083    
0.6609        -0.28708     
0.661         -0.287076    
0.6611        -0.287069    
0.6612        -0.287065    
0.6613        -0.287063    
0.6614        -0.28706     
0.6615        -0.287058    
0.6616        -0.28705     
0.6617        -0.287048    
0.6618        -0.287045    
0.6619        -0.287042    
0.662         -0.287035    
0.6621        -0.287032    
0.6622        -0.287029    
0.6623        -0.287027    
0.6624        -0.287023    
0.6625        -0.287016    
0.6626        -0.287013    
0.6627        -0.287011    
0.6628        -0.287008    
0.6629        -0.287006    
0.663         -0.286997    
0.6631        -0.286996    
0.6632        -0.286993    
0.6633        -0.28699     
0.6634        -0.286984    
0.6635        -0.286982    
0.6636        -0.286978    
0.6637        -0.286972    
0.6638        -0.286969    
0.6639        -0.286967    
0.664         -0.286964    
0.6641        -0.286961    
0.6642        -0.286954    
0.6643        -0.286952    
0.6644        -0.286949    
0.6645        -0.286947    
0.6646        -0.286942    
0.6647        -0.286935    
0.6648        -0.286931    
0.6649        -0.28693     
0.665         -0.286927    
0.6651        -0.286925    
0.6652        -0.286921    
0.6653        -0.286913    
0.6654        -0.28691     
0.6655        -0.286908    
0.6656        -0.286906    
0.6657        -0.286903    
0.6658        -0.286899    
0.6659        -0.286893    
0.666         -0.286888    
0.6661        -0.286887    
0.6662        -0.286884    
0.6663        -0.286881    
0.6664        -0.286874    
0.6665        -0.286872    
0.6666        -0.286869    
0.6667        -0.286867    
0.6668        -0.286863    
0.6669        -0.286856    
0.667         -0.286853    
0.6671        -0.286851    
0.6672        -0.286848    
0.6673        -0.286846    
0.6674        -0.286838    
0.6675        -0.286836    
0.6676        -0.286833    
0.6677        -0.286831    
0.6678        -0.286828    
0.6679        -0.28682     
0.668         -0.286818    
0.6681        -0.286816    
0.6682        -0.286812    
0.6683        -0.286811    
0.6684        -0.286802    
0.6685        -0.286801    
0.6686        -0.286798    
0.6687        -0.286795    
0.6688        -0.286793    
0.6689        -0.286785    
0.669         -0.286783    
0.6691        -0.286781    
0.6692        -0.286777    
0.6693        -0.286776    
0.6694        -0.286768    
0.6695        -0.286767    
0.6696        -0.286763    
0.6697        -0.286761    
0.6698        -0.286754    
0.6699        -0.286753    
0.67          -0.286749    
0.6701        -0.286747    
0.6702        -0.28674     
0.6703        -0.286738    
0.6704        -0.286736    
0.6705        -0.286733    
0.6706        -0.28673     
0.6707        -0.286723    
0.6708        -0.28672     
0.6709        -0.286718    
0.671         -0.286716    
0.6711        -0.286713    
0.6712        -0.286706    
0.6713        -0.286703    
0.6714        -0.286701    
0.6715        -0.286699    
0.6716        -0.286695    
0.6717        -0.286689    
0.6718        -0.286686    
0.6719        -0.286684    
0.672         -0.286681    
0.6721        -0.286678    
0.6722        -0.286672    
0.6723        -0.28667     
0.6724        -0.286668    
0.6725        -0.286664    
0.6726        -0.286662    
0.6727        -0.286652    
0.6728        -0.286651    
0.6729        -0.286653    
0.673         -0.286647    
0.6731        -0.286644    
0.6732        -0.286638    
0.6733        -0.286636    
0.6734        -0.286633    
0.6735        -0.286632    
0.6736        -0.286627    
0.6737        -0.286621    
0.6738        -0.286618    
0.6739        -0.286616    
0.674         -0.286614    
0.6741        -0.286611    
0.6742        -0.286608    
0.6743        -0.286601    
0.6744        -0.286598    
0.6745        -0.286596    
0.6746        -0.286594    
0.6747        -0.286591    
0.6748        -0.286587    
0.6749        -0.28658     
0.675         -0.286578    
0.6751        -0.286576    
0.6752        -0.286573    
0.6753        -0.286572    
0.6754        -0.286568    
0.6755        -0.286561    
0.6756        -0.286559    
0.6757        -0.286557    
0.6758        -0.286554    
0.6759        -0.286552    
0.676         -0.286544    
0.6761        -0.286543    
0.6762        -0.286541    
0.6763        -0.286538    
0.6764        -0.286535    
0.6765        -0.286528    
0.6766        -0.286526    
0.6767        -0.286524    
0.6768        -0.286522    
0.6769        -0.286519    
0.677         -0.286512    
0.6771        -0.28651     
0.6772        -0.286508    
0.6773        -0.286505    
0.6774        -0.286503    
0.6775        -0.286495    
0.6776        -0.286493    
0.6777        -0.286491    
0.6778        -0.286489    
0.6779        -0.286487    
0.678         -0.28648     
0.6781        -0.286479    
0.6782        -0.286476    
0.6783        -0.286473    
0.6784        -0.286471    
0.6785        -0.286461    
0.6786        -0.28646     
0.6787        -0.286463    
0.6788        -0.286456    
0.6789        -0.286454    
0.679         -0.286451    
0.6791        -0.286444    
0.6792        -0.286442    
0.6793        -0.28644     
0.6794        -0.286438    
0.6795        -0.286435    
0.6796        -0.286433    
0.6797        -0.286423    
0.6798        -0.286422    
0.6799        -0.286424    
0.68          -0.286423    
0.6801        -0.286409    
0.6802        -0.286408    
0.6803        -0.286412    
0.6804        -0.286405    
0.6805        -0.286403    
0.6806        -0.2864      
0.6807        -0.286393    
0.6808        -0.286392    
0.6809        -0.286389    
0.681         -0.286388    
0.6811        -0.286385    
0.6812        -0.286383    
0.6813        -0.286373    
0.6814        -0.286372    
0.6815        -0.286373    
0.6816        -0.286372    
0.6817        -0.28636     
0.6818        -0.286359    
0.6819        -0.286362    
0.682         -0.286356    
0.6821        -0.286353    
0.6822        -0.286349    
0.6823        -0.286347    
0.6824        -0.286341    
0.6825        -0.286339    
0.6826        -0.286336    
0.6827        -0.286335    
0.6828        -0.286332    
0.6829        -0.28633     
0.683         -0.286319    
0.6831        -0.286318    
0.6832        -0.286322    
0.6833        -0.286315    
0.6834        -0.286313    
0.6835        -0.28631     
0.6836        -0.286304    
0.6837        -0.286302    
0.6838        -0.2863      
0.6839        -0.286298    
0.684         -0.286296    
0.6841        -0.286289    
0.6842        -0.286287    
0.6843        -0.286285    
0.6844        -0.286283    
0.6845        -0.28628     
0.6846        -0.286274    
0.6847        -0.286271    
0.6848        -0.28627     
0.6849        -0.286268    
0.685         -0.286265    
0.6851        -0.286263    
0.6852        -0.286254    
0.6853        -0.286252    
0.6854        -0.286255    
0.6855        -0.286252    
0.6856        -0.286241    
0.6857        -0.28624     
0.6858        -0.286243    
0.6859        -0.286236    
0.686         -0.286235    
0.6861        -0.286231    
0.6862        -0.286225    
0.6863        -0.286224    
0.6864        -0.286222    
0.6865        -0.286219    
0.6866        -0.286218    
0.6867        -0.286211    
0.6868        -0.286209    
0.6869        -0.286207    
0.687         -0.286205    
0.6871        -0.286203    
0.6872        -0.286194    
0.6873        -0.286193    
0.6874        -0.286194    
0.6875        -0.286192    
0.6876        -0.286183    
0.6877        -0.286182    
0.6878        -0.28618     
0.6879        -0.286178    
0.688         -0.286177    
0.6881        -0.286173    
0.6882        -0.286171    
0.6883        -0.28616     
0.6884        -0.286159    
0.6885        -0.286164    
0.6886        -0.286157    
0.6887        -0.286155    
0.6888        -0.286153    
0.6889        -0.286144    
0.689         -0.286143    
0.6891        -0.286144    
0.6892        -0.286143    
0.6893        -0.286134    
0.6894        -0.286133    
0.6895        -0.28613     
0.6896        -0.28613     
0.6897        -0.286126    
0.6898        -0.286125    
0.6899        -0.286114    
0.69          -0.286114    
0.6901        -0.286117    
0.6902        -0.286111    
0.6903        -0.286109    
0.6904        -0.286107    
0.6905        -0.286098    
0.6906        -0.286098    
0.6907        -0.286097    
0.6908        -0.286096    
0.6909        -0.286089    
0.691         -0.286088    
0.6911        -0.286085    
0.6912        -0.286084    
0.6913        -0.286081    
0.6914        -0.286073    
0.6915        -0.286071    
0.6916        -0.286074    
0.6917        -0.286072    
0.6918        -0.28606     
0.6919        -0.286059    
0.692         -0.286063    
0.6921        -0.286056    
0.6922        -0.286055    
0.6923        -0.286052    
0.6924        -0.286051    
0.6925        -0.28604     
0.6926        -0.28604     
0.6927        -0.286043    
0.6928        -0.286037    
0.6929        -0.286035    
0.693         -0.286033    
0.6931        -0.286026    
0.6932        -0.286025    
0.6933        -0.286022    
0.6934        -0.286022    
0.6935        -0.286019    
0.6936        -0.286016    
0.6937        -0.28601     
0.6938        -0.286008    
0.6939        -0.286006    
0.694         -0.286005    
0.6941        -0.286002    
0.6942        -0.285997    
0.6943        -0.285995    
0.6944        -0.285994    
0.6945        -0.285991    
0.6946        -0.285988    
0.6947        -0.285981    
0.6948        -0.28598     
0.6949        -0.285978    
0.695         -0.285977    
0.6951        -0.285974    
0.6952        -0.285974    
0.6953        -0.285965    
0.6954        -0.285964    
0.6955        -0.285962    
0.6956        -0.285961    
0.6957        -0.285959    
0.6958        -0.285952    
0.6959        -0.285951    
0.696         -0.28595     
0.6961        -0.285948    
0.6962        -0.285941    
0.6963        -0.28594     
0.6964        -0.285938    
0.6965        -0.285936    
0.6966        -0.285934    
0.6967        -0.285929    
0.6968        -0.285927    
0.6969        -0.285925    
0.697         -0.285924    
0.6971        -0.285916    
0.6972        -0.285916    
0.6973        -0.285914    
0.6974        -0.285912    
0.6975        -0.28591     
0.6976        -0.285903    
0.6977        -0.285902    
0.6978        -0.2859      
0.6979        -0.285899    
0.698         -0.285896    
0.6981        -0.285895    
0.6982        -0.285887    
0.6983        -0.285884    
0.6984        -0.285884    
0.6985        -0.285882    
0.6986        -0.285881    
0.6987        -0.285879    
0.6988        -0.285872    
0.6989        -0.28587     
0.699         -0.285869    
0.6991        -0.285866    
0.6992        -0.285866    
0.6993        -0.285858    
0.6994        -0.285858    
0.6995        -0.285855    
0.6996        -0.285854    
0.6997        -0.285852    
0.6998        -0.285846    
0.6999        -0.285844    
0.7           -0.285844    
0.7001        -0.28584     
0.7002        -0.285838    
0.7003        -0.285832    
0.7004        -0.285831    
0.7005        -0.285829    
0.7006        -0.285828    
0.7007        -0.285826    
0.7008        -0.285819    
0.7009        -0.285818    
0.701         -0.285817    
0.7011        -0.285815    
0.7012        -0.285812    
0.7013        -0.285806    
0.7014        -0.285805    
0.7015        -0.285803    
0.7016        -0.285802    
0.7017        -0.2858      
0.7018        -0.285797    
0.7019        -0.28579     
0.702         -0.285789    
0.7021        -0.285787    
0.7022        -0.285787    
0.7023        -0.285784    
0.7024        -0.285783    
0.7025        -0.285774    
0.7026        -0.285774    
0.7027        -0.285772    
0.7028        -0.285771    
0.7029        -0.28577     
0.703         -0.285767    
0.7031        -0.28576     
0.7032        -0.285759    
0.7033        -0.285757    
0.7034        -0.285756    
0.7035        -0.285754    
0.7036        -0.285751    
0.7037        -0.285744    
0.7038        -0.285743    
0.7039        -0.285742    
0.704         -0.285741    
0.7041        -0.285738    
0.7042        -0.285738    
0.7043        -0.285729    
0.7044        -0.285729    
0.7045        -0.285727    
0.7046        -0.285726    
0.7047        -0.285724    
0.7048        -0.285719    
0.7049        -0.285717    
0.705         -0.285716    
0.7051        -0.285713    
0.7052        -0.285708    
0.7053        -0.285706    
0.7054        -0.285705    
0.7055        -0.285703    
0.7056        -0.285702    
0.7057        -0.2857      
0.7058        -0.285691    
0.7059        -0.28569     
0.706         -0.285693    
0.7061        -0.285687    
0.7062        -0.285686    
0.7063        -0.285683    
0.7064        -0.285678    
0.7065        -0.285676    
0.7066        -0.285676    
0.7067        -0.285673    
0.7068        -0.285672    
0.7069        -0.28567     