# Probe 0 (0.03 0 0.0073)
# Time        0            
0.6001        (0.597653 -2.26718e-20 -0.00932394)
0.6002        (0.597655 -2.26716e-20 -0.00932411)
0.6003        (0.597658 -2.26712e-20 -0.00932424)
0.6004        (0.59766 -2.26708e-20 -0.0093244)
0.6005        (0.597663 -2.26699e-20 -0.00932454)
0.6006        (0.597665 -2.26696e-20 -0.0093247)
0.6007        (0.597668 -2.2669e-20 -0.00932483)
0.6008        (0.59767 -2.26689e-20 -0.00932499)
0.6009        (0.597673 -2.26682e-20 -0.00932512)
0.601         (0.597676 -2.26679e-20 -0.00932528)
0.6011        (0.597678 -2.26669e-20 -0.00932541)
0.6012        (0.597681 -2.26668e-20 -0.00932557)
0.6013        (0.597683 -2.26661e-20 -0.0093257)
0.6014        (0.597686 -2.2666e-20 -0.00932585)
0.6015        (0.597689 -2.26652e-20 -0.00932599)
0.6016        (0.597691 -2.2665e-20 -0.00932614)
0.6017        (0.597694 -2.2664e-20 -0.00932627)
0.6018        (0.597696 -2.26638e-20 -0.00932642)
0.6019        (0.597699 -2.26632e-20 -0.00932656)
0.602         (0.597701 -2.26631e-20 -0.00932671)
0.6021        (0.597704 -2.26623e-20 -0.00932684)
0.6022        (0.597707 -2.26622e-20 -0.00932699)
0.6023        (0.597709 -2.26611e-20 -0.00932713)
0.6024        (0.597712 -2.2661e-20 -0.00932728)
0.6025        (0.597714 -2.26603e-20 -0.00932741)
0.6026        (0.597717 -2.26602e-20 -0.00932756)
0.6027        (0.597719 -2.26595e-20 -0.0093277)
0.6028        (0.597722 -2.26593e-20 -0.00932785)
0.6029        (0.597725 -2.26582e-20 -0.00932798)
0.603         (0.597727 -2.26581e-20 -0.00932813)
0.6031        (0.59773 -2.26574e-20 -0.00932826)
0.6032        (0.597732 -2.26573e-20 -0.00932841)
0.6033        (0.597735 -2.26566e-20 -0.00932855)
0.6034        (0.597737 -2.26564e-20 -0.0093287)
0.6035        (0.59774 -2.26554e-20 -0.00932883)
0.6036        (0.597742 -2.26552e-20 -0.00932898)
0.6037        (0.597745 -2.26546e-20 -0.00932912)
0.6038        (0.597748 -2.26545e-20 -0.00932927)
0.6039        (0.59775 -2.26537e-20 -0.0093294)
0.604         (0.597753 -2.26535e-20 -0.00932955)
0.6041        (0.597755 -2.26525e-20 -0.00932969)
0.6042        (0.597758 -2.26524e-20 -0.00932984)
0.6043        (0.59776 -2.26517e-20 -0.00932997)
0.6044        (0.597763 -2.26516e-20 -0.00933012)
0.6045        (0.597766 -2.26509e-20 -0.00933026)
0.6046        (0.597768 -2.26507e-20 -0.00933041)
0.6047        (0.597771 -2.26497e-20 -0.00933055)
0.6048        (0.597773 -2.26496e-20 -0.0093307)
0.6049        (0.597776 -2.26489e-20 -0.00933083)
0.605         (0.597778 -2.26488e-20 -0.00933099)
0.6051        (0.597781 -2.2648e-20 -0.00933112)
0.6052        (0.597783 -2.26479e-20 -0.00933128)
0.6053        (0.597786 -2.26468e-20 -0.00933141)
0.6054        (0.597789 -2.26467e-20 -0.00933157)
0.6055        (0.597791 -2.2646e-20 -0.0093317)
0.6056        (0.597794 -2.2646e-20 -0.00933186)
0.6057        (0.597796 -2.26452e-20 -0.009332)
0.6058        (0.597799 -2.26451e-20 -0.00933215)
0.6059        (0.597801 -2.2644e-20 -0.00933229)
0.606         (0.597804 -2.26439e-20 -0.00933244)
0.6061        (0.597806 -2.26432e-20 -0.00933258)
0.6062        (0.597809 -2.26432e-20 -0.00933274)
0.6063        (0.597812 -2.26424e-20 -0.00933287)
0.6064        (0.597814 -2.26422e-20 -0.00933303)
0.6065        (0.597817 -2.26412e-20 -0.00933317)
0.6066        (0.597819 -2.26411e-20 -0.00933332)
0.6067        (0.597822 -2.26404e-20 -0.00933346)
0.6068        (0.597824 -2.26404e-20 -0.00933362)
0.6069        (0.597827 -2.26396e-20 -0.00933376)
0.607         (0.597829 -2.26395e-20 -0.00933391)
0.6071        (0.597832 -2.26384e-20 -0.00933405)
0.6072        (0.597834 -2.26383e-20 -0.0093342)
0.6073        (0.597837 -2.26377e-20 -0.00933434)
0.6074        (0.597839 -2.26376e-20 -0.0093345)
0.6075        (0.597842 -2.26369e-20 -0.00933464)
0.6076        (0.597845 -2.26367e-20 -0.00933479)
0.6077        (0.597847 -2.26356e-20 -0.00933493)
0.6078        (0.59785 -2.26355e-20 -0.00933508)
0.6079        (0.597852 -2.26349e-20 -0.00933522)
0.608         (0.597855 -2.26348e-20 -0.00933538)
0.6081        (0.597857 -2.26341e-20 -0.00933551)
0.6082        (0.59786 -2.26339e-20 -0.00933567)
0.6083        (0.597862 -2.26329e-20 -0.0093358)
0.6084        (0.597865 -2.26328e-20 -0.00933596)
0.6085        (0.597867 -2.26321e-20 -0.0093361)
0.6086        (0.59787 -2.26321e-20 -0.00933625)
0.6087        (0.597872 -2.26313e-20 -0.00933639)
0.6088        (0.597875 -2.26312e-20 -0.00933654)
0.6089        (0.597878 -2.26301e-20 -0.00933668)
0.609         (0.59788 -2.263e-20 -0.00933683)
0.6091        (0.597883 -2.26294e-20 -0.00933697)
0.6092        (0.597885 -2.26293e-20 -0.00933712)
0.6093        (0.597888 -2.26286e-20 -0.00933726)
0.6094        (0.59789 -2.26284e-20 -0.00933741)
0.6095        (0.597893 -2.26274e-20 -0.00933755)
0.6096        (0.597895 -2.26273e-20 -0.0093377)
0.6097        (0.597898 -2.26267e-20 -0.00933784)
0.6098        (0.5979 -2.26266e-20 -0.00933799)
0.6099        (0.597903 -2.26259e-20 -0.00933813)
0.61          (0.597905 -2.26257e-20 -0.00933828)
0.6101        (0.597908 -2.26247e-20 -0.00933841)
0.6102        (0.59791 -2.26246e-20 -0.00933857)
0.6103        (0.597913 -2.26239e-20 -0.0093387)
0.6104        (0.597915 -2.26239e-20 -0.00933886)
0.6105        (0.597918 -2.26232e-20 -0.00933899)
0.6106        (0.597921 -2.2623e-20 -0.00933915)
0.6107        (0.597923 -2.2622e-20 -0.00933928)
0.6108        (0.597926 -2.26219e-20 -0.00933944)
0.6109        (0.597928 -2.26212e-20 -0.00933957)
0.611         (0.597931 -2.26212e-20 -0.00933973)
0.6111        (0.597933 -2.26205e-20 -0.00933986)
0.6112        (0.597936 -2.26203e-20 -0.00934002)
0.6113        (0.597938 -2.26193e-20 -0.00934015)
0.6114        (0.597941 -2.26192e-20 -0.00934031)
0.6115        (0.597943 -2.26185e-20 -0.00934045)
0.6116        (0.597946 -2.26185e-20 -0.0093406)
0.6117        (0.597948 -2.26178e-20 -0.00934074)
0.6118        (0.597951 -2.26176e-20 -0.00934089)
0.6119        (0.597953 -2.26166e-20 -0.00934103)
0.612         (0.597956 -2.26165e-20 -0.00934118)
0.6121        (0.597958 -2.26159e-20 -0.00934132)
0.6122        (0.597961 -2.26158e-20 -0.00934148)
0.6123        (0.597963 -2.26151e-20 -0.00934162)
0.6124        (0.597966 -2.26149e-20 -0.00934177)
0.6125        (0.597968 -2.26139e-20 -0.00934191)
0.6126        (0.597971 -2.26138e-20 -0.00934207)
0.6127        (0.597973 -2.26132e-20 -0.0093422)
0.6128        (0.597976 -2.26131e-20 -0.00934236)
0.6129        (0.597978 -2.26124e-20 -0.0093425)
0.613         (0.597981 -2.26123e-20 -0.00934266)
0.6131        (0.597983 -2.26113e-20 -0.0093428)
0.6132        (0.597986 -2.26112e-20 -0.00934295)
0.6133        (0.597988 -2.26105e-20 -0.00934309)
0.6134        (0.597991 -2.26105e-20 -0.00934325)
0.6135        (0.597994 -2.26098e-20 -0.00934339)
0.6136        (0.597996 -2.26096e-20 -0.00934355)
0.6137        (0.597999 -2.26086e-20 -0.00934369)
0.6138        (0.598001 -2.26085e-20 -0.00934384)
0.6139        (0.598004 -2.26079e-20 -0.00934399)
0.614         (0.598006 -2.26078e-20 -0.00934414)
0.6141        (0.598009 -2.26071e-20 -0.00934429)
0.6142        (0.598011 -2.2607e-20 -0.00934444)
0.6143        (0.598014 -2.2606e-20 -0.00934458)
0.6144        (0.598016 -2.26059e-20 -0.00934474)
0.6145        (0.598019 -2.26053e-20 -0.00934488)
0.6146        (0.598021 -2.26052e-20 -0.00934504)
0.6147        (0.598024 -2.26045e-20 -0.00934518)
0.6148        (0.598026 -2.26043e-20 -0.00934534)
0.6149        (0.598029 -2.26033e-20 -0.00934548)
0.615         (0.598031 -2.26033e-20 -0.00934564)
0.6151        (0.598034 -2.26026e-20 -0.00934578)
0.6152        (0.598036 -2.26026e-20 -0.00934594)
0.6153        (0.598039 -2.26019e-20 -0.00934608)
0.6154        (0.598041 -2.26017e-20 -0.00934624)
0.6155        (0.598044 -2.26007e-20 -0.00934639)
0.6156        (0.598046 -2.26007e-20 -0.00934654)
0.6157        (0.598049 -2.26e-20 -0.00934669)
0.6158        (0.598051 -2.26e-20 -0.00934684)
0.6159        (0.598054 -2.25993e-20 -0.00934699)
0.616         (0.598056 -2.25991e-20 -0.00934714)
0.6161        (0.598058 -2.25981e-20 -0.00934729)
0.6162        (0.598061 -2.25981e-20 -0.00934744)
0.6163        (0.598063 -2.25974e-20 -0.00934759)
0.6164        (0.598066 -2.25974e-20 -0.00934774)
0.6165        (0.598068 -2.25967e-20 -0.00934789)
0.6166        (0.598071 -2.25965e-20 -0.00934804)
0.6167        (0.598073 -2.25956e-20 -0.00934818)
0.6168        (0.598076 -2.25955e-20 -0.00934834)
0.6169        (0.598078 -2.25949e-20 -0.00934848)
0.617         (0.598081 -2.25948e-20 -0.00934864)
0.6171        (0.598083 -2.25941e-20 -0.00934878)
0.6172        (0.598086 -2.2594e-20 -0.00934894)
0.6173        (0.598088 -2.2593e-20 -0.00934908)
0.6174        (0.598091 -2.25929e-20 -0.00934924)
0.6175        (0.598093 -2.25923e-20 -0.00934938)
0.6176        (0.598096 -2.25923e-20 -0.00934954)
0.6177        (0.598098 -2.25916e-20 -0.00934968)
0.6178        (0.598101 -2.25914e-20 -0.00934984)
0.6179        (0.598103 -2.25904e-20 -0.00934998)
0.618         (0.598106 -2.25904e-20 -0.00935013)
0.6181        (0.598108 -2.25898e-20 -0.00935027)
0.6182        (0.598111 -2.25897e-20 -0.00935043)
0.6183        (0.598113 -2.2589e-20 -0.00935057)
0.6184        (0.598116 -2.25889e-20 -0.00935073)
0.6185        (0.598118 -2.25879e-20 -0.00935087)
0.6186        (0.598121 -2.25878e-20 -0.00935103)
0.6187        (0.598123 -2.25872e-20 -0.00935117)
0.6188        (0.598125 -2.25872e-20 -0.00935133)
0.6189        (0.598128 -2.25865e-20 -0.00935147)
0.619         (0.59813 -2.25861e-20 -0.00935162)
0.6191        (0.598133 -2.25855e-20 -0.00935176)
0.6192        (0.598135 -2.25854e-20 -0.00935192)
0.6193        (0.598138 -2.25848e-20 -0.00935206)
0.6194        (0.59814 -2.25845e-20 -0.00935222)
0.6195        (0.598143 -2.25839e-20 -0.00935236)
0.6196        (0.598145 -2.25837e-20 -0.00935252)
0.6197        (0.598148 -2.2583e-20 -0.00935266)
0.6198        (0.59815 -2.25829e-20 -0.00935282)
0.6199        (0.598153 -2.25819e-20 -0.00935296)
0.62          (0.598155 -2.25819e-20 -0.00935312)
0.6201        (0.598158 -2.25813e-20 -0.00935326)
0.6202        (0.59816 -2.25813e-20 -0.00935342)
0.6203        (0.598163 -2.25806e-20 -0.00935356)
0.6204        (0.598165 -2.25805e-20 -0.00935372)
0.6205        (0.598167 -2.25795e-20 -0.00935386)
0.6206        (0.59817 -2.25794e-20 -0.00935402)
0.6207        (0.598172 -2.25788e-20 -0.00935416)
0.6208        (0.598175 -2.25788e-20 -0.00935432)
0.6209        (0.598177 -2.25781e-20 -0.00935446)
0.621         (0.59818 -2.25777e-20 -0.00935462)
0.6211        (0.598182 -2.25771e-20 -0.00935476)
0.6212        (0.598185 -2.2577e-20 -0.00935492)
0.6213        (0.598187 -2.25765e-20 -0.00935506)
0.6214        (0.59819 -2.25762e-20 -0.00935522)
0.6215        (0.598192 -2.25757e-20 -0.00935536)
0.6216        (0.598195 -2.2575e-20 -0.00935552)
0.6217        (0.598197 -2.25745e-20 -0.00935567)
0.6218        (0.598199 -2.25748e-20 -0.00935583)
0.6219        (0.598202 -2.25739e-20 -0.00935597)
0.622         (0.598204 -2.25738e-20 -0.00935613)
0.6221        (0.598207 -2.25731e-20 -0.00935627)
0.6222        (0.598209 -2.25728e-20 -0.00935643)
0.6223        (0.598212 -2.25722e-20 -0.00935658)
0.6224        (0.598214 -2.25721e-20 -0.00935674)
0.6225        (0.598217 -2.25715e-20 -0.00935688)
0.6226        (0.598219 -2.25711e-20 -0.00935704)
0.6227        (0.598222 -2.25706e-20 -0.00935719)
0.6228        (0.598224 -2.25704e-20 -0.00935735)
0.6229        (0.598226 -2.25698e-20 -0.00935749)
0.623         (0.598229 -2.25695e-20 -0.00935765)
0.6231        (0.598231 -2.2569e-20 -0.0093578)
0.6232        (0.598234 -2.25688e-20 -0.00935796)
0.6233        (0.598236 -2.25682e-20 -0.00935811)
0.6234        (0.598239 -2.2568e-20 -0.00935827)
0.6235        (0.598241 -2.25674e-20 -0.00935841)
0.6236        (0.598244 -2.25669e-20 -0.00935857)
0.6237        (0.598246 -2.25664e-20 -0.00935872)
0.6238        (0.598248 -2.25663e-20 -0.00935888)
0.6239        (0.598251 -2.25658e-20 -0.00935903)
0.624         (0.598253 -2.25656e-20 -0.00935919)
0.6241        (0.598256 -2.2565e-20 -0.00935934)
0.6242        (0.598258 -2.25645e-20 -0.0093595)
0.6243        (0.598261 -2.2564e-20 -0.00935964)
0.6244        (0.598263 -2.25639e-20 -0.0093598)
0.6245        (0.598265 -2.25634e-20 -0.00935995)
0.6246        (0.598268 -2.25632e-20 -0.00936011)
0.6247        (0.59827 -2.25627e-20 -0.00936026)
0.6248        (0.598273 -2.25619e-20 -0.00936042)
0.6249        (0.598275 -2.25615e-20 -0.00936057)
0.625         (0.598278 -2.25617e-20 -0.00936073)
0.6251        (0.59828 -2.25609e-20 -0.00936088)
0.6252        (0.598282 -2.25608e-20 -0.00936104)
0.6253        (0.598285 -2.25601e-20 -0.00936119)
0.6254        (0.598287 -2.25598e-20 -0.00936135)
0.6255        (0.59829 -2.25593e-20 -0.0093615)
0.6256        (0.598292 -2.25591e-20 -0.00936166)
0.6257        (0.598295 -2.25586e-20 -0.00936181)
0.6258        (0.598297 -2.25583e-20 -0.00936197)
0.6259        (0.598299 -2.25578e-20 -0.00936212)
0.626         (0.598302 -2.25572e-20 -0.00936228)
0.6261        (0.598304 -2.25568e-20 -0.00936243)
0.6262        (0.598307 -2.25566e-20 -0.00936259)
0.6263        (0.598309 -2.25562e-20 -0.00936274)
0.6264        (0.598312 -2.2556e-20 -0.0093629)
0.6265        (0.598314 -2.25555e-20 -0.00936305)
0.6266        (0.598316 -2.2555e-20 -0.00936321)
0.6267        (0.598319 -2.25545e-20 -0.00936336)
0.6268        (0.598321 -2.25543e-20 -0.00936352)
0.6269        (0.598324 -2.25538e-20 -0.00936367)
0.627         (0.598326 -2.25537e-20 -0.00936383)
0.6271        (0.598328 -2.25527e-20 -0.00936398)
0.6272        (0.598331 -2.25527e-20 -0.00936414)
0.6273        (0.598333 -2.25521e-20 -0.00936429)
0.6274        (0.598336 -2.25521e-20 -0.00936445)
0.6275        (0.598338 -2.25515e-20 -0.0093646)
0.6276        (0.598341 -2.25513e-20 -0.00936476)
0.6277        (0.598343 -2.25504e-20 -0.00936491)
0.6278        (0.598345 -2.25503e-20 -0.00936507)
0.6279        (0.598348 -2.25498e-20 -0.00936522)
0.628         (0.59835 -2.25497e-20 -0.00936538)
0.6281        (0.598353 -2.25491e-20 -0.00936553)
0.6282        (0.598355 -2.25489e-20 -0.00936569)
0.6283        (0.598357 -2.25481e-20 -0.00936584)
0.6284        (0.59836 -2.25479e-20 -0.009366)
0.6285        (0.598362 -2.25474e-20 -0.00936615)
0.6286        (0.598365 -2.25474e-20 -0.00936631)
0.6287        (0.598367 -2.25468e-20 -0.00936646)
0.6288        (0.598369 -2.25466e-20 -0.00936662)
0.6289        (0.598372 -2.25457e-20 -0.00936677)
0.629         (0.598374 -2.25456e-20 -0.00936693)
0.6291        (0.598377 -2.25451e-20 -0.00936708)
0.6292        (0.598379 -2.2545e-20 -0.00936724)
0.6293        (0.598381 -2.25444e-20 -0.00936739)
0.6294        (0.598384 -2.25442e-20 -0.00936755)
0.6295        (0.598386 -2.25434e-20 -0.0093677)
0.6296        (0.598389 -2.25433e-20 -0.00936786)
0.6297        (0.598391 -2.25428e-20 -0.00936801)
0.6298        (0.598393 -2.25427e-20 -0.00936817)
0.6299        (0.598396 -2.25421e-20 -0.00936832)
0.63          (0.598398 -2.25419e-20 -0.00936848)
0.6301        (0.598401 -2.25411e-20 -0.00936863)
0.6302        (0.598403 -2.25409e-20 -0.00936879)
0.6303        (0.598405 -2.25405e-20 -0.00936894)
0.6304        (0.598408 -2.25404e-20 -0.0093691)
0.6305        (0.59841 -2.25398e-20 -0.00936925)
0.6306        (0.598412 -2.25396e-20 -0.00936941)
0.6307        (0.598415 -2.25388e-20 -0.00936955)
0.6308        (0.598417 -2.25386e-20 -0.00936972)
0.6309        (0.59842 -2.25382e-20 -0.00936986)
0.631         (0.598422 -2.25381e-20 -0.00937003)
0.6311        (0.598424 -2.25375e-20 -0.00937017)
0.6312        (0.598427 -2.25373e-20 -0.00937034)
0.6313        (0.598429 -2.25369e-20 -0.00937048)
0.6314        (0.598432 -2.25361e-20 -0.00937064)
0.6315        (0.598434 -2.25359e-20 -0.00937079)
0.6316        (0.598436 -2.25358e-20 -0.00937095)
0.6317        (0.598439 -2.25352e-20 -0.0093711)
0.6318        (0.598441 -2.25348e-20 -0.00937126)
0.6319        (0.598443 -2.25343e-20 -0.00937141)
0.632         (0.598446 -2.25342e-20 -0.00937157)
0.6321        (0.598448 -2.25337e-20 -0.00937172)
0.6322        (0.598451 -2.25335e-20 -0.00937188)
0.6323        (0.598453 -2.25331e-20 -0.00937203)
0.6324        (0.598455 -2.25323e-20 -0.00937219)
0.6325        (0.598458 -2.25319e-20 -0.00937234)
0.6326        (0.59846 -2.25322e-20 -0.0093725)
0.6327        (0.598462 -2.25314e-20 -0.00937265)
0.6328        (0.598465 -2.25313e-20 -0.00937281)
0.6329        (0.598467 -2.25304e-20 -0.00937296)
0.633         (0.598469 -2.25304e-20 -0.00937312)
0.6331        (0.598472 -2.25298e-20 -0.00937327)
0.6332        (0.598474 -2.25298e-20 -0.00937343)
0.6333        (0.598477 -2.25292e-20 -0.00937358)
0.6334        (0.598479 -2.25288e-20 -0.00937374)
0.6335        (0.598481 -2.25283e-20 -0.00937389)
0.6336        (0.598484 -2.25282e-20 -0.00937405)
0.6337        (0.598486 -2.25277e-20 -0.0093742)
0.6338        (0.598488 -2.25275e-20 -0.00937436)
0.6339        (0.598491 -2.2527e-20 -0.00937451)
0.634         (0.598493 -2.25263e-20 -0.00937467)
0.6341        (0.598495 -2.25259e-20 -0.00937482)
0.6342        (0.598498 -2.25262e-20 -0.00937498)
0.6343        (0.5985 -2.25256e-20 -0.00937513)
0.6344        (0.598503 -2.25249e-20 -0.00937529)
0.6345        (0.598505 -2.25245e-20 -0.00937544)
0.6346        (0.598507 -2.25244e-20 -0.0093756)
0.6347        (0.59851 -2.2524e-20 -0.00937575)
0.6348        (0.598512 -2.25238e-20 -0.00937591)
0.6349        (0.598514 -2.25233e-20 -0.00937606)
0.635         (0.598517 -2.25228e-20 -0.00937622)
0.6351        (0.598519 -2.25224e-20 -0.00937637)
0.6352        (0.598521 -2.25222e-20 -0.00937653)
0.6353        (0.598524 -2.25218e-20 -0.00937668)
0.6354        (0.598526 -2.25216e-20 -0.00937684)
0.6355        (0.598528 -2.25207e-20 -0.00937699)
0.6356        (0.598531 -2.25207e-20 -0.00937715)
0.6357        (0.598533 -2.25202e-20 -0.0093773)
0.6358        (0.598535 -2.25201e-20 -0.00937746)
0.6359        (0.598538 -2.25196e-20 -0.00937761)
0.636         (0.59854 -2.25195e-20 -0.00937777)
0.6361        (0.598542 -2.25184e-20 -0.00937792)
0.6362        (0.598545 -2.25184e-20 -0.00937808)
0.6363        (0.598547 -2.25182e-20 -0.00937823)
0.6364        (0.59855 -2.25179e-20 -0.00937839)
0.6365        (0.598552 -2.25174e-20 -0.00937854)
0.6366        (0.598554 -2.25169e-20 -0.0093787)
0.6367        (0.598557 -2.25165e-20 -0.00937885)
0.6368        (0.598559 -2.25163e-20 -0.00937901)
0.6369        (0.598561 -2.2516e-20 -0.00937916)
0.637         (0.598564 -2.25158e-20 -0.00937932)
0.6371        (0.598566 -2.25152e-20 -0.00937947)
0.6372        (0.598568 -2.25148e-20 -0.00937963)
0.6373        (0.598571 -2.25143e-20 -0.00937978)
0.6374        (0.598573 -2.25142e-20 -0.00937994)
0.6375        (0.598575 -2.25138e-20 -0.00938009)
0.6376        (0.598578 -2.25136e-20 -0.00938025)
0.6377        (0.59858 -2.25132e-20 -0.0093804)
0.6378        (0.598582 -2.25124e-20 -0.00938056)
0.6379        (0.598585 -2.2512e-20 -0.00938071)
0.638         (0.598587 -2.25123e-20 -0.00938087)
0.6381        (0.598589 -2.25116e-20 -0.00938102)
0.6382        (0.598591 -2.25114e-20 -0.00938118)
0.6383        (0.598594 -2.25106e-20 -0.00938133)
0.6384        (0.598596 -2.25105e-20 -0.0093815)
0.6385        (0.598598 -2.25101e-20 -0.00938164)
0.6386        (0.598601 -2.251e-20 -0.00938181)
0.6387        (0.598603 -2.25095e-20 -0.00938196)
0.6388        (0.598605 -2.2509e-20 -0.00938212)
0.6389        (0.598608 -2.25086e-20 -0.00938227)
0.639         (0.59861 -2.25084e-20 -0.00938243)
0.6391        (0.598612 -2.25081e-20 -0.00938258)
0.6392        (0.598615 -2.25078e-20 -0.00938274)
0.6393        (0.598617 -2.25075e-20 -0.00938289)
0.6394        (0.598619 -2.25066e-20 -0.00938305)
0.6395        (0.598622 -2.25063e-20 -0.0093832)
0.6396        (0.598624 -2.25065e-20 -0.00938336)
0.6397        (0.598626 -2.25059e-20 -0.00938351)
0.6398        (0.598629 -2.25056e-20 -0.00938367)
0.6399        (0.598631 -2.25052e-20 -0.00938382)
0.64          (0.598633 -2.25047e-20 -0.00938398)
0.6401        (0.598636 -2.25044e-20 -0.00938413)
0.6402        (0.598638 -2.25041e-20 -0.00938429)
0.6403        (0.59864 -2.25039e-20 -0.00938445)
0.6404        (0.598642 -2.25035e-20 -0.00938461)
0.6405        (0.598645 -2.25033e-20 -0.00938476)
0.6406        (0.598647 -2.25023e-20 -0.00938492)
0.6407        (0.598649 -2.25022e-20 -0.00938507)
0.6408        (0.598652 -2.25022e-20 -0.00938523)
0.6409        (0.598654 -2.25017e-20 -0.00938538)
0.641         (0.598656 -2.25014e-20 -0.00938554)
0.6411        (0.598659 -2.2501e-20 -0.00938569)
0.6412        (0.598661 -2.25007e-20 -0.00938585)
0.6413        (0.598663 -2.25e-20 -0.009386)
0.6414        (0.598665 -2.24997e-20 -0.00938616)
0.6415        (0.598668 -2.24996e-20 -0.00938631)
0.6416        (0.59867 -2.24992e-20 -0.00938647)
0.6417        (0.598672 -2.24991e-20 -0.00938663)
0.6418        (0.598675 -2.24986e-20 -0.00938678)
0.6419        (0.598677 -2.24981e-20 -0.00938694)
0.642         (0.598679 -2.24977e-20 -0.0093871)
0.6421        (0.598682 -2.24975e-20 -0.00938725)
0.6422        (0.598684 -2.24972e-20 -0.00938741)
0.6423        (0.598686 -2.24969e-20 -0.00938756)
0.6424        (0.598688 -2.24961e-20 -0.00938772)
0.6425        (0.598691 -2.2496e-20 -0.00938787)
0.6426        (0.598693 -2.24956e-20 -0.00938803)
0.6427        (0.598695 -2.24955e-20 -0.00938818)
0.6428        (0.598698 -2.24951e-20 -0.00938834)
0.6429        (0.5987 -2.24949e-20 -0.0093885)
0.643         (0.598702 -2.2494e-20 -0.00938865)
0.6431        (0.598704 -2.24939e-20 -0.00938881)
0.6432        (0.598707 -2.24936e-20 -0.00938896)
0.6433        (0.598709 -2.24934e-20 -0.00938912)
0.6434        (0.598711 -2.24931e-20 -0.00938928)
0.6435        (0.598714 -2.24929e-20 -0.00938943)
0.6436        (0.598716 -2.2492e-20 -0.00938959)
0.6437        (0.598718 -2.24919e-20 -0.00938974)
0.6438        (0.59872 -2.24915e-20 -0.0093899)
0.6439        (0.598723 -2.24914e-20 -0.00939006)
0.644         (0.598725 -2.2491e-20 -0.00939021)
0.6441        (0.598727 -2.24908e-20 -0.00939037)
0.6442        (0.598729 -2.24899e-20 -0.00939052)
0.6443        (0.598732 -2.24898e-20 -0.00939068)
0.6444        (0.598734 -2.24897e-20 -0.00939084)
0.6445        (0.598736 -2.24896e-20 -0.00939099)
0.6446        (0.598739 -2.24885e-20 -0.00939115)
0.6447        (0.598741 -2.24884e-20 -0.0093913)
0.6448        (0.598743 -2.24884e-20 -0.00939146)
0.6449        (0.598745 -2.24879e-20 -0.00939161)
0.645         (0.598748 -2.24876e-20 -0.00939177)
0.6451        (0.59875 -2.24872e-20 -0.00939193)
0.6452        (0.598752 -2.24869e-20 -0.00939208)
0.6453        (0.598754 -2.24862e-20 -0.00939224)
0.6454        (0.598757 -2.2486e-20 -0.00939239)
0.6455        (0.598759 -2.24858e-20 -0.00939255)
0.6456        (0.598761 -2.24855e-20 -0.00939271)
0.6457        (0.598763 -2.24854e-20 -0.00939286)
0.6458        (0.598766 -2.24849e-20 -0.00939302)
0.6459        (0.598768 -2.24844e-20 -0.00939317)
0.646         (0.59877 -2.2484e-20 -0.00939333)
0.6461        (0.598773 -2.24838e-20 -0.00939349)
0.6462        (0.598775 -2.24835e-20 -0.00939364)
0.6463        (0.598777 -2.24833e-20 -0.0093938)
0.6464        (0.598779 -2.24826e-20 -0.00939395)
0.6465        (0.598782 -2.24824e-20 -0.00939411)
0.6466        (0.598784 -2.24821e-20 -0.00939427)
0.6467        (0.598786 -2.24819e-20 -0.00939442)
0.6468        (0.598788 -2.24815e-20 -0.00939458)
0.6469        (0.598791 -2.2481e-20 -0.00939473)
0.647         (0.598793 -2.24807e-20 -0.00939489)
0.6471        (0.598795 -2.24805e-20 -0.00939505)
0.6472        (0.598797 -2.24802e-20 -0.0093952)
0.6473        (0.5988 -2.248e-20 -0.00939536)
0.6474        (0.598802 -2.24792e-20 -0.00939551)
0.6475        (0.598804 -2.24791e-20 -0.00939567)
0.6476        (0.598806 -2.24787e-20 -0.00939583)
0.6477        (0.598809 -2.24786e-20 -0.00939598)
0.6478        (0.598811 -2.24782e-20 -0.00939614)
0.6479        (0.598813 -2.24781e-20 -0.00939629)
0.648         (0.598815 -2.24771e-20 -0.00939645)
0.6481        (0.598817 -2.2477e-20 -0.0093966)
0.6482        (0.59882 -2.24769e-20 -0.00939676)
0.6483        (0.598822 -2.24768e-20 -0.00939692)
0.6484        (0.598824 -2.24758e-20 -0.00939707)
0.6485        (0.598826 -2.24757e-20 -0.00939723)
0.6486        (0.598829 -2.24757e-20 -0.00939738)
0.6487        (0.598831 -2.24755e-20 -0.00939754)
0.6488        (0.598833 -2.24744e-20 -0.0093977)
0.6489        (0.598835 -2.24743e-20 -0.00939785)
0.649         (0.598838 -2.24744e-20 -0.00939801)
0.6491        (0.59884 -2.24739e-20 -0.00939816)
0.6492        (0.598842 -2.24736e-20 -0.00939832)
0.6493        (0.598844 -2.24733e-20 -0.00939847)
0.6494        (0.598847 -2.24727e-20 -0.00939863)
0.6495        (0.598849 -2.24725e-20 -0.00939879)
0.6496        (0.598851 -2.24722e-20 -0.00939894)
0.6497        (0.598853 -2.24721e-20 -0.0093991)
0.6498        (0.598855 -2.24717e-20 -0.00939926)
0.6499        (0.598858 -2.24715e-20 -0.00939941)
0.65          (0.59886 -2.24705e-20 -0.00939957)
0.6501        (0.598862 -2.24704e-20 -0.00939972)
0.6502        (0.598864 -2.24705e-20 -0.00939988)
0.6503        (0.598867 -2.247e-20 -0.00940003)
0.6504        (0.598869 -2.24697e-20 -0.00940019)
0.6505        (0.598871 -2.24694e-20 -0.00940034)
0.6506        (0.598873 -2.24691e-20 -0.0094005)
0.6507        (0.598875 -2.24683e-20 -0.00940066)
0.6508        (0.598878 -2.24683e-20 -0.00940081)
0.6509        (0.59888 -2.24681e-20 -0.00940097)
0.651         (0.598882 -2.24678e-20 -0.00940113)
0.6511        (0.598884 -2.24675e-20 -0.00940128)
0.6512        (0.598886 -2.24669e-20 -0.00940144)
0.6513        (0.598889 -2.24667e-20 -0.00940159)
0.6514        (0.598891 -2.24664e-20 -0.00940175)
0.6515        (0.598893 -2.24662e-20 -0.0094019)
0.6516        (0.598895 -2.24659e-20 -0.00940206)
0.6517        (0.598898 -2.24653e-20 -0.00940221)
0.6518        (0.5989 -2.24651e-20 -0.00940237)
0.6519        (0.598902 -2.24648e-20 -0.00940252)
0.652         (0.598904 -2.24646e-20 -0.00940268)
0.6521        (0.598906 -2.24643e-20 -0.00940284)
0.6522        (0.598909 -2.24637e-20 -0.00940299)
0.6523        (0.598911 -2.24635e-20 -0.00940315)
0.6524        (0.598913 -2.24632e-20 -0.00940331)
0.6525        (0.598915 -2.24631e-20 -0.00940346)
0.6526        (0.598917 -2.24627e-20 -0.00940362)
0.6527        (0.59892 -2.24625e-20 -0.00940377)
0.6528        (0.598922 -2.24615e-20 -0.00940393)
0.6529        (0.598924 -2.24617e-20 -0.00940408)
0.653         (0.598926 -2.24614e-20 -0.00940424)
0.6531        (0.598928 -2.24612e-20 -0.00940439)
0.6532        (0.59893 -2.24608e-20 -0.00940455)
0.6533        (0.598933 -2.24602e-20 -0.0094047)
0.6534        (0.598935 -2.24599e-20 -0.00940486)
0.6535        (0.598937 -2.24598e-20 -0.00940502)
0.6536        (0.598939 -2.24595e-20 -0.00940517)
0.6537        (0.598941 -2.24593e-20 -0.00940533)
0.6538        (0.598944 -2.24589e-20 -0.00940548)
0.6539        (0.598946 -2.24583e-20 -0.00940564)
0.654         (0.598948 -2.24581e-20 -0.0094058)
0.6541        (0.59895 -2.24579e-20 -0.00940595)
0.6542        (0.598952 -2.24576e-20 -0.00940611)
0.6543        (0.598955 -2.24574e-20 -0.00940626)
0.6544        (0.598957 -2.24571e-20 -0.00940642)
0.6545        (0.598959 -2.24563e-20 -0.00940657)
0.6546        (0.598961 -2.24561e-20 -0.00940673)
0.6547        (0.598963 -2.24563e-20 -0.00940688)
0.6548        (0.598965 -2.24557e-20 -0.00940704)
0.6549        (0.598968 -2.24555e-20 -0.00940719)
0.655         (0.59897 -2.24549e-20 -0.00940735)
0.6551        (0.598972 -2.24548e-20 -0.0094075)
0.6552        (0.598974 -2.24544e-20 -0.00940766)
0.6553        (0.598976 -2.24543e-20 -0.00940781)
0.6554        (0.598979 -2.24539e-20 -0.00940797)
0.6555        (0.598981 -2.24534e-20 -0.00940813)
0.6556        (0.598983 -2.24531e-20 -0.00940828)
0.6557        (0.598985 -2.24529e-20 -0.00940844)
0.6558        (0.598987 -2.24527e-20 -0.00940859)
0.6559        (0.598989 -2.24525e-20 -0.00940875)
0.656         (0.598992 -2.24517e-20 -0.0094089)
0.6561        (0.598994 -2.24516e-20 -0.00940906)
0.6562        (0.598996 -2.24513e-20 -0.00940921)
0.6563        (0.598998 -2.24512e-20 -0.00940937)
0.6564        (0.599 -2.24508e-20 -0.00940953)
0.6565        (0.599002 -2.24507e-20 -0.00940968)
0.6566        (0.599005 -2.24498e-20 -0.00940984)
0.6567        (0.599007 -2.24497e-20 -0.00940999)
0.6568        (0.599009 -2.24497e-20 -0.00941015)
0.6569        (0.599011 -2.24496e-20 -0.0094103)
0.657         (0.599013 -2.24485e-20 -0.00941046)
0.6571        (0.599015 -2.24484e-20 -0.00941061)
0.6572        (0.599017 -2.24486e-20 -0.00941077)
0.6573        (0.59902 -2.2448e-20 -0.00941092)
0.6574        (0.599022 -2.24478e-20 -0.00941108)
0.6575        (0.599024 -2.24475e-20 -0.00941123)
0.6576        (0.599026 -2.24469e-20 -0.00941139)
0.6577        (0.599028 -2.24468e-20 -0.00941154)
0.6578        (0.59903 -2.24465e-20 -0.0094117)
0.6579        (0.599033 -2.24463e-20 -0.00941185)
0.658         (0.599035 -2.2446e-20 -0.00941201)
0.6581        (0.599037 -2.24458e-20 -0.00941216)
0.6582        (0.599039 -2.24449e-20 -0.00941232)
0.6583        (0.599041 -2.24448e-20 -0.00941247)
0.6584        (0.599043 -2.24449e-20 -0.00941263)
0.6585        (0.599045 -2.24444e-20 -0.00941278)
0.6586        (0.599048 -2.24441e-20 -0.00941294)
0.6587        (0.59905 -2.24439e-20 -0.00941309)
0.6588        (0.599052 -2.24433e-20 -0.00941324)
0.6589        (0.599054 -2.24432e-20 -0.0094134)
0.659         (0.599056 -2.24429e-20 -0.00941355)
0.6591        (0.599058 -2.24427e-20 -0.00941371)
0.6592        (0.59906 -2.24424e-20 -0.00941386)
0.6593        (0.599063 -2.24422e-20 -0.00941401)
0.6594        (0.599065 -2.24413e-20 -0.00941417)
0.6595        (0.599067 -2.24414e-20 -0.00941432)
0.6596        (0.599069 -2.24411e-20 -0.00941448)
0.6597        (0.599071 -2.24409e-20 -0.00941463)
0.6598        (0.599073 -2.24406e-20 -0.00941479)
0.6599        (0.599075 -2.24401e-20 -0.00941494)
0.66          (0.599077 -2.24397e-20 -0.0094151)
0.6601        (0.59908 -2.24396e-20 -0.00941525)
0.6602        (0.599082 -2.24393e-20 -0.00941541)